TITLE: "QKFVS Viscous Code - NAL"
VARIABLES= "X", "Y", "Density", "Pressure", "x-velocity", "y-velocity", "Velocity Magnitude"
ZONE I= 160 J= 80 , DATAPACKING=BLOCK
1.009
1.00794
1.0067
1.00529
1.00372
1.00197
1.00002
0.997836
0.995389
0.992644
0.989564
0.98611
0.982238
0.9779
0.973042
0.96761
0.961542
0.954775
0.947237
0.938855
0.929555
0.919258
0.907885
0.895356
0.881595
0.866532
0.850099
0.832242
0.812919
0.792104
0.76979
0.745997
0.720761
0.694163
0.666299
0.637299
0.607322
0.576553
0.545195
0.51347
0.481613
0.449861
0.418446
0.387595
0.357518
0.328402
0.300413
0.273686
0.248324
0.224408
0.201987
0.181081
0.161692
0.143796
0.127356
0.112318
0.0986214
0.0861915
0.0749551
0.0648396
0.0557679
0.0476536
0.0404163
0.0340029
0.0283513
0.023363
0.0190151
0.0152488
0.0120004
0.00924808
0.00692892
0.00501751
0.00347892
0.00225022
0.00134181
0.000671302
0.000188601
-6.4943e-05
-0.000228065
-0.000373212
-0.000373212
-0.000228065
-6.4943e-05
0.000188601
0.000671302
0.00134181
0.00225022
0.00347892
0.00501751
0.00692892
0.00924808
0.0120004
0.0152488
0.0190151
0.023363
0.0283513
0.0340029
0.0404163
0.0476536
0.0557679
0.0648396
0.0749551
0.0861915
0.0986214
0.112318
0.127356
0.143796
0.161692
0.181081
0.201987
0.224408
0.248324
0.273686
0.300413
0.328402
0.357518
0.387595
0.418446
0.449861
0.481613
0.51347
0.545195
0.576553
0.607322
0.637299
0.666299
0.694163
0.720761
0.745997
0.76979
0.792104
0.812919
0.832242
0.850099
0.866532
0.881595
0.895356
0.907885
0.919258
0.929555
0.938855
0.947237
0.954775
0.961542
0.96761
0.973042
0.9779
0.982238
0.98611
0.989564
0.992644
0.995389
0.997836
1.00002
1.00197
1.00372
1.00529
1.0067
1.00794
1.009
1.01006
1.00906
1.00776
1.00625
1.00456
1.00271
1.00067
0.998418
0.995921
0.993137
0.990023
0.986544
0.98265
0.978293
0.973418
0.967972
0.961891
0.955113
0.947563
0.93917
0.929858
0.91955
0.908165
0.895623
0.881847
0.866773
0.85033
0.832463
0.813128
0.792301
0.769977
0.746173
0.72092
0.694306
0.666425
0.63741
0.607418
0.576634
0.545261
0.513521
0.48165
0.44988
0.418447
0.387576
0.357477
0.328341
0.300332
0.273586
0.248205
0.224269
0.201826
0.180899
0.161487
0.143568
0.127104
0.112041
0.0983183
0.085863
0.0745987
0.0644542
0.0553549
0.0472141
0.0399489
0.0335029
0.0278247
0.0228101
0.0184283
0.014635
0.0113543
0.00857219
0.00622312
0.00428163
0.00271387
0.00146326
0.000534418
-0.000145109
-0.000631593
-0.000895198
-0.00106084
-0.00119461
-0.00119461
-0.00106084
-0.000895198
-0.000631593
-0.000145109
0.000534418
0.00146326
0.00271387
0.00428163
0.00622312
0.00857219
0.0113543
0.014635
0.0184283
0.0228101
0.0278247
0.0335029
0.0399489
0.0472141
0.0553549
0.0644542
0.0745987
0.085863
0.0983183
0.112041
0.127104
0.143568
0.161487
0.180899
0.201826
0.224269
0.248205
0.273586
0.300332
0.328341
0.357477
0.387576
0.418447
0.44988
0.48165
0.513521
0.545261
0.576634
0.607418
0.63741
0.666425
0.694306
0.72092
0.746173
0.769977
0.792301
0.813128
0.832463
0.85033
0.866773
0.881847
0.895623
0.908165
0.91955
0.929858
0.93917
0.947563
0.955113
0.961891
0.967972
0.973418
0.978293
0.98265
0.986544
0.990023
0.993137
0.995921
0.998418
1.00067
1.00271
1.00456
1.00625
1.00776
1.00906
1.01006
1.01118
1.01031
1.00904
1.00747
1.00568
1.00372
1.00158
0.999244
0.996679
0.99384
0.990681
0.987164
0.983238
0.978853
0.973954
0.968484
0.962383
0.955588
0.94802
0.939609
0.930277
0.919952
0.908547
0.895987
0.882192
0.867099
0.850638
0.832755
0.8134
0.792557
0.770214
0.74639
0.721114
0.694477
0.666573
0.637535
0.607519
0.576714
0.545316
0.513556
0.481658
0.449866
0.418407
0.387511
0.357386
0.328225
0.300191
0.273421
0.248015
0.224054
0.201586
0.180635
0.161197
0.143253
0.126762
0.111674
0.0979248
0.085444
0.0741536
0.0639834
0.0548586
0.0466943
0.0394055
0.032934
0.0272343
0.0222012
0.0177974
0.0139858
0.0106858
0.00788631
0.00552161
0.00356593
0.00198464
0.000727032
-0.000211258
-0.000894355
-0.00138027
-0.00165217
-0.00182013
-0.00194281
-0.00194281
-0.00182013
-0.00165217
-0.00138027
-0.000894355
-0.000211258
0.000727032
0.00198464
0.00356593
0.00552161
0.00788631
0.0106858
0.0139858
0.0177974
0.0222012
0.0272343
0.032934
0.0394055
0.0466943
0.0548586
0.0639834
0.0741536
0.085444
0.0979248
0.111674
0.126762
0.143253
0.161197
0.180635
0.201586
0.224054
0.248015
0.273421
0.300191
0.328225
0.357386
0.387511
0.418407
0.449866
0.481658
0.513556
0.545316
0.576714
0.607519
0.637535
0.666573
0.694477
0.721114
0.74639
0.770214
0.792557
0.8134
0.832755
0.850638
0.867099
0.882192
0.895987
0.908547
0.919952
0.930277
0.939609
0.94802
0.955588
0.962383
0.968484
0.973954
0.978853
0.983238
0.987164
0.990681
0.99384
0.996679
0.999244
1.00158
1.00372
1.00568
1.00747
1.00904
1.01031
1.01118
1.01231
1.01158
1.01038
1.00881
1.00696
1.00491
1.00268
1.00025
0.997606
0.994701
0.991487
0.987922
0.983955
0.979536
0.974604
0.969104
0.962979
0.956162
0.948571
0.940137
0.930783
0.920435
0.909007
0.896425
0.882605
0.86749
0.851007
0.8331
0.813723
0.792854
0.770487
0.746639
0.721336
0.69467
0.666738
0.637672
0.607627
0.576793
0.545367
0.513578
0.481652
0.44983
0.418342
0.387415
0.35726
0.32807
0.300007
0.273209
0.247774
0.223785
0.201289
0.18031
0.160844
0.142873
0.126355
0.11124
0.0974647
0.0849592
0.0736437
0.0634489
0.0543009
0.0461147
0.0388046
0.0323128
0.0265946
0.0215478
0.0171302
0.0133058
0.00999539
0.00718637
0.00481547
0.00285572
0.00127153
1.51612e-05
-0.000925002
-0.00160885
-0.00209202
-0.00237136
-0.00254129
-0.0026531
-0.0026531
-0.00254129
-0.00237136
-0.00209202
-0.00160885
-0.000925002
1.51612e-05
0.00127153
0.00285572
0.00481547
0.00718637
0.00999539
0.0133058
0.0171302
0.0215478
0.0265946
0.0323128
0.0388046
0.0461147
0.0543009
0.0634489
0.0736437
0.0849592
0.0974647
0.11124
0.126355
0.142873
0.160844
0.18031
0.201289
0.223785
0.247774
0.273209
0.300007
0.32807
0.35726
0.387415
0.418342
0.44983
0.481652
0.513578
0.545367
0.576793
0.607627
0.637672
0.666738
0.69467
0.721336
0.746639
0.770487
0.792854
0.813723
0.8331
0.851007
0.86749
0.882605
0.896425
0.909007
0.920435
0.930783
0.940137
0.948571
0.956162
0.962979
0.969104
0.974604
0.979536
0.983955
0.987922
0.991487
0.994701
0.997606
1.00025
1.00268
1.00491
1.00696
1.00881
1.01038
1.01158
1.01231
1.01344
1.01283
1.01172
1.01018
1.00832
1.00621
1.00389
1.00138
0.998657
0.995681
0.992405
0.988785
0.984771
0.980312
0.975342
0.969807
0.963652
0.95681
0.949195
0.940735
0.931355
0.920981
0.909527
0.896918
0.883072
0.867932
0.851421
0.833488
0.814082
0.793186
0.77079
0.746914
0.721579
0.694882
0.666917
0.637818
0.607742
0.576874
0.545417
0.513594
0.481635
0.449779
0.418257
0.387298
0.35711
0.327887
0.299792
0.272961
0.247496
0.223476
0.20095
0.179941
0.160445
0.142445
0.1259
0.110757
0.096955
0.0844237
0.0730841
0.0628657
0.0536955
0.0454884
0.0381588
0.031649
0.0259149
0.0208577
0.0164311
0.0125981
0.00928255
0.00646944
0.00409804
0.00214027
0.00055918
-0.000691235
-0.00162941
-0.00231189
-0.00279214
-0.00307788
-0.00324917
-0.00335138
-0.00335138
-0.00324917
-0.00307788
-0.00279214
-0.00231189
-0.00162941
-0.000691235
0.00055918
0.00214027
0.00409804
0.00646944
0.00928255
0.0125981
0.0164311
0.0208577
0.0259149
0.031649
0.0381588
0.0454884
0.0536955
0.0628657
0.0730841
0.0844237
0.096955
0.110757
0.1259
0.142445
0.160445
0.179941
0.20095
0.223476
0.247496
0.272961
0.299792
0.327887
0.35711
0.387298
0.418257
0.449779
0.481635
0.513594
0.545417
0.576874
0.607742
0.637818
0.666917
0.694882
0.721579
0.746914
0.77079
0.793186
0.814082
0.833488
0.851421
0.867932
0.883072
0.896918
0.909527
0.920981
0.931355
0.940735
0.949195
0.95681
0.963652
0.969807
0.975342
0.980312
0.984771
0.988785
0.992405
0.995681
0.998657
1.00138
1.00389
1.00621
1.00832
1.01018
1.01172
1.01283
1.01344
1.01459
1.01407
1.01303
1.01155
1.0097
1.00756
1.00519
1.0026
0.999804
0.996757
0.993417
0.989738
0.985674
0.981169
0.976158
0.970584
0.964395
0.957525
0.949882
0.941394
0.931985
0.921584
0.910101
0.897462
0.883587
0.868417
0.851878
0.833914
0.814477
0.793549
0.771121
0.74721
0.721842
0.695109
0.667109
0.637976
0.607863
0.57696
0.545466
0.513607
0.48161
0.449718
0.41816
0.387164
0.35694
0.327682
0.299551
0.272686
0.247186
0.223132
0.200573
0.179533
0.160006
0.141975
0.125399
0.110227
0.0963981
0.0838408
0.0724764
0.0622348
0.0530422
0.0448143
0.0374664
0.0309401
0.0251917
0.0201262
0.0156939
0.0118554
0.00853871
0.00572578
0.00335849
0.00140728
-0.000166503
-0.00140797
-0.00234159
-0.0030215
-0.00349879
-0.00378999
-0.00396244
-0.0040568
-0.0040568
-0.00396244
-0.00378999
-0.00349879
-0.0030215
-0.00234159
-0.00140797
-0.000166503
0.00140728
0.00335849
0.00572578
0.00853871
0.0118554
0.0156939
0.0201262
0.0251917
0.0309401
0.0374664
0.0448143
0.0530422
0.0622348
0.0724764
0.0838408
0.0963981
0.110227
0.125399
0.141975
0.160006
0.179533
0.200573
0.223132
0.247186
0.272686
0.299551
0.327682
0.35694
0.387164
0.41816
0.449718
0.48161
0.513607
0.545466
0.57696
0.607863
0.637976
0.667109
0.695109
0.721842
0.74721
0.771121
0.793549
0.814477
0.833914
0.851878
0.868417
0.883587
0.897462
0.910101
0.921584
0.931985
0.941394
0.949882
0.957525
0.964395
0.970584
0.976158
0.981169
0.985674
0.989738
0.993417
0.996757
0.999804
1.0026
1.00519
1.00756
1.0097
1.01155
1.01303
1.01407
1.01459
1.01578
1.01531
1.01434
1.01291
1.01109
1.00895
1.00654
1.00389
1.00103
0.997913
0.99451
0.990771
0.986652
0.982099
0.977043
0.971426
0.9652
0.958299
0.950626
0.942107
0.932668
0.922235
0.910721
0.898049
0.884143
0.868942
0.85237
0.834372
0.814902
0.793939
0.771475
0.747529
0.722123
0.695353
0.667315
0.638143
0.607992
0.577049
0.545516
0.513617
0.481582
0.449648
0.418051
0.387016
0.356754
0.327457
0.299289
0.272385
0.246849
0.222759
0.200166
0.179091
0.159531
0.141468
0.12486
0.109658
0.0958005
0.0832159
0.0718267
0.0615609
0.0523462
0.0440974
0.0367313
0.030189
0.0244274
0.0193548
0.0149183
0.0110763
0.00776057
0.00495041
0.0025897
0.000647374
-0.000917097
-0.00214878
-0.00307683
-0.00375384
-0.0042285
-0.00452412
-0.00469758
-0.00478598
-0.00478598
-0.00469758
-0.00452412
-0.0042285
-0.00375384
-0.00307683
-0.00214878
-0.000917097
0.000647374
0.0025897
0.00495041
0.00776057
0.0110763
0.0149183
0.0193548
0.0244274
0.030189
0.0367313
0.0440974
0.0523462
0.0615609
0.0718267
0.0832159
0.0958005
0.109658
0.12486
0.141468
0.159531
0.179091
0.200166
0.222759
0.246849
0.272385
0.299289
0.327457
0.356754
0.387016
0.418051
0.449648
0.481582
0.513617
0.545516
0.577049
0.607992
0.638143
0.667315
0.695353
0.722123
0.747529
0.771475
0.793939
0.814902
0.834372
0.85237
0.868942
0.884143
0.898049
0.910721
0.922235
0.932668
0.942107
0.950626
0.958299
0.9652
0.971426
0.977043
0.982099
0.986652
0.990771
0.99451
0.997913
1.00103
1.00389
1.00654
1.00895
1.01109
1.01291
1.01434
1.01531
1.01578
1.01701
1.01658
1.01566
1.01429
1.0125
1.01036
1.00793
1.00524
1.00232
0.999142
0.995678
0.991878
0.987704
0.9831
0.977996
0.972333
0.966068
0.959133
0.951427
0.942875
0.933403
0.922937
0.911389
0.898682
0.884741
0.869506
0.852899
0.834865
0.815358
0.794356
0.771854
0.747868
0.722424
0.695613
0.667535
0.638321
0.608128
0.577143
0.545568
0.513627
0.481549
0.449573
0.417934
0.386856
0.356553
0.327216
0.299007
0.272063
0.246487
0.222359
0.199728
0.178617
0.159022
0.140923
0.124284
0.109049
0.0951612
0.0825483
0.0711324
0.0608418
0.0516038
0.0433332
0.0359486
0.0293907
0.0236159
0.0185366
0.0140966
0.0102526
0.00693921
0.00413356
0.00178112
-0.000150828
-0.00170506
-0.00292681
-0.00384914
-0.00452322
-0.00499561
-0.00529456
-0.00546907
-0.00555345
-0.00555345
-0.00546907
-0.00529456
-0.00499561
-0.00452322
-0.00384914
-0.00292681
-0.00170506
-0.000150828
0.00178112
0.00413356
0.00693921
0.0102526
0.0140966
0.0185366
0.0236159
0.0293907
0.0359486
0.0433332
0.0516038
0.0608418
0.0711324
0.0825483
0.0951612
0.109049
0.124284
0.140923
0.159022
0.178617
0.199728
0.222359
0.246487
0.272063
0.299007
0.327216
0.356553
0.386856
0.417934
0.449573
0.481549
0.513627
0.545568
0.577143
0.608128
0.638321
0.667535
0.695613
0.722424
0.747868
0.771854
0.794356
0.815358
0.834865
0.852899
0.869506
0.884741
0.898682
0.911389
0.922937
0.933403
0.942875
0.951427
0.959133
0.966068
0.972333
0.977996
0.9831
0.987704
0.991878
0.995678
0.999142
1.00232
1.00524
1.00793
1.01036
1.0125
1.01429
1.01566
1.01658
1.01701
1.01831
1.0179
1.01701
1.01568
1.01393
1.0118
1.00937
1.00665
1.00368
1.00045
0.996922
0.993062
0.988831
0.984175
0.979021
0.97331
0.967002
0.960029
0.952287
0.9437
0.934192
0.92369
0.912106
0.899361
0.885384
0.870112
0.853466
0.835393
0.815846
0.794804
0.77226
0.748232
0.722746
0.695891
0.667769
0.638511
0.608274
0.577243
0.545623
0.513636
0.481512
0.44949
0.417805
0.386683
0.356336
0.326955
0.298703
0.271715
0.246097
0.221929
0.199258
0.178107
0.158474
0.140339
0.123664
0.108395
0.0944753
0.0818321
0.0703883
0.0600714
0.0508088
0.0425159
0.0351122
0.0285377
0.02275
0.0176637
0.0132202
0.0093747
0.00606446
0.00326421
0.000920869
-0.00100031
-0.00254414
-0.00375653
-0.00467334
-0.00534472
-0.00581513
-0.00611633
-0.00629167
-0.00637347
-0.00637347
-0.00629167
-0.00611633
-0.00581513
-0.00534472
-0.00467334
-0.00375653
-0.00254414
-0.00100031
0.000920869
0.00326421
0.00606446
0.0093747
0.0132202
0.0176637
0.02275
0.0285377
0.0351122
0.0425159
0.0508088
0.0600714
0.0703883
0.0818321
0.0944753
0.108395
0.123664
0.140339
0.158474
0.178107
0.199258
0.221929
0.246097
0.271715
0.298703
0.326955
0.356336
0.386683
0.417805
0.44949
0.481512
0.513636
0.545623
0.577243
0.608274
0.638511
0.667769
0.695891
0.722746
0.748232
0.77226
0.794804
0.815846
0.835393
0.853466
0.870112
0.885384
0.899361
0.912106
0.92369
0.934192
0.9437
0.952287
0.960029
0.967002
0.97331
0.979021
0.984175
0.988831
0.993062
0.996922
1.00045
1.00368
1.00665
1.00937
1.0118
1.01393
1.01568
1.01701
1.0179
1.01831
1.01969
1.01929
1.01842
1.01712
1.0154
1.0133
1.01085
1.00812
1.00511
1.00183
0.998245
0.994325
0.990038
0.985327
0.980121
0.97436
0.968007
0.960993
0.953213
0.944586
0.935041
0.924501
0.912876
0.900091
0.886074
0.870762
0.854076
0.83596
0.81637
0.795284
0.772695
0.748621
0.723089
0.696189
0.66802
0.638714
0.608428
0.57735
0.54568
0.513645
0.481473
0.449402
0.417668
0.386498
0.356104
0.326676
0.298377
0.271343
0.245679
0.221467
0.198754
0.17756
0.157887
0.139712
0.122999
0.107694
0.0937398
0.0810643
0.0695903
0.0592452
0.0499568
0.0416399
0.0342155
0.0276241
0.0218226
0.0167289
0.0122814
0.0084346
0.00512771
0.00233333
-7.95434e-07
-0.00191141
-0.00344553
-0.00464961
-0.00556168
-0.0062309
-0.00669996
-0.00700296
-0.00717931
-0.00725977
-0.00725977
-0.00717931
-0.00700296
-0.00669996
-0.0062309
-0.00556168
-0.00464961
-0.00344553
-0.00191141
-7.95434e-07
0.00233333
0.00512771
0.0084346
0.0122814
0.0167289
0.0218226
0.0276241
0.0342155
0.0416399
0.0499568
0.0592452
0.0695903
0.0810643
0.0937398
0.107694
0.122999
0.139712
0.157887
0.17756
0.198754
0.221467
0.245679
0.271343
0.298377
0.326676
0.356104
0.386498
0.417668
0.449402
0.481473
0.513645
0.54568
0.57735
0.608428
0.638714
0.66802
0.696189
0.723089
0.748621
0.772695
0.795284
0.81637
0.83596
0.854076
0.870762
0.886074
0.900091
0.912876
0.924501
0.935041
0.944586
0.953213
0.960993
0.968007
0.97436
0.980121
0.985327
0.990038
0.994325
0.998245
1.00183
1.00511
1.00812
1.01085
1.0133
1.0154
1.01712
1.01842
1.01929
1.01969
1.02116
1.02075
1.0199
1.01863
1.01693
1.01484
1.0124
1.00965
1.00662
1.00329
0.999652
0.995676
0.991331
0.986564
0.981304
0.97549
0.96909
0.962032
0.95421
0.945541
0.935955
0.925373
0.913706
0.900876
0.886816
0.871461
0.854731
0.836569
0.816932
0.795799
0.773162
0.749039
0.723459
0.696508
0.668289
0.638932
0.608595
0.577464
0.545742
0.513655
0.48143
0.449305
0.41752
0.386299
0.355854
0.326374
0.298025
0.27094
0.245229
0.220969
0.198209
0.176971
0.157253
0.139036
0.122281
0.106938
0.0929466
0.0802368
0.0687307
0.0583555
0.0490389
0.0406968
0.0332507
0.0266411
0.0208255
0.0157234
0.0112717
0.00742342
0.00411997
0.00133164
-0.000993349
-0.00289406
-0.00441938
-0.00561655
-0.00652497
-0.00719302
-0.00766176
-0.00796687
-0.00814493
-0.00822528
-0.00822528
-0.00814493
-0.00796687
-0.00766176
-0.00719302
-0.00652497
-0.00561655
-0.00441938
-0.00289406
-0.000993349
0.00133164
0.00411997
0.00742342
0.0112717
0.0157234
0.0208255
0.0266411
0.0332507
0.0406968
0.0490389
0.0583555
0.0687307
0.0802368
0.0929466
0.106938
0.122281
0.139036
0.157253
0.176971
0.198209
0.220969
0.245229
0.27094
0.298025
0.326374
0.355854
0.386299
0.41752
0.449305
0.48143
0.513655
0.545742
0.577464
0.608595
0.638932
0.668289
0.696508
0.723459
0.749039
0.773162
0.795799
0.816932
0.836569
0.854731
0.871461
0.886816
0.900876
0.913706
0.925373
0.935955
0.945541
0.95421
0.962032
0.96909
0.97549
0.981304
0.986564
0.991331
0.995676
0.999652
1.00329
1.00662
1.00965
1.0124
1.01484
1.01693
1.01863
1.0199
1.02075
1.02116
1.02273
1.02232
1.02147
1.02021
1.01854
1.01647
1.01403
1.01127
1.0082
1.00483
1.00115
0.997119
0.992719
0.987895
0.982579
0.97671
0.970259
0.963153
0.955285
0.946572
0.93694
0.926313
0.9146
0.901723
0.887617
0.872215
0.855437
0.837226
0.817539
0.796355
0.773665
0.749489
0.723856
0.696852
0.668579
0.639167
0.608775
0.577587
0.54581
0.513666
0.481385
0.449203
0.417362
0.386085
0.355585
0.326051
0.297647
0.270509
0.244745
0.220433
0.197624
0.176337
0.156572
0.138309
0.12151
0.106123
0.0920924
0.0793454
0.0678045
0.0573964
0.04805
0.0396804
0.0322111
0.025582
0.019751
0.0146395
0.0101824
0.00633235
0.00303189
0.000249256
-0.00206743
-0.00395943
-0.00547747
-0.00666947
-0.00757581
-0.00824409
-0.00871402
-0.00902212
-0.00920294
-0.00928428
-0.00928428
-0.00920294
-0.00902212
-0.00871402
-0.00824409
-0.00757581
-0.00666947
-0.00547747
-0.00395943
-0.00206743
0.000249256
0.00303189
0.00633235
0.0101824
0.0146395
0.019751
0.025582
0.0322111
0.0396804
0.04805
0.0573964
0.0678045
0.0793454
0.0920924
0.106123
0.12151
0.138309
0.156572
0.176337
0.197624
0.220433
0.244745
0.270509
0.297647
0.326051
0.355585
0.386085
0.417362
0.449203
0.481385
0.513666
0.54581
0.577587
0.608775
0.639167
0.668579
0.696852
0.723856
0.749489
0.773665
0.796355
0.817539
0.837226
0.855437
0.872215
0.887617
0.901723
0.9146
0.926313
0.93694
0.946572
0.955285
0.963153
0.970259
0.97671
0.982579
0.987895
0.992719
0.997119
1.00115
1.00483
1.0082
1.01127
1.01403
1.01647
1.01854
1.02021
1.02147
1.02232
1.02273
1.02442
1.024
1.02315
1.0219
1.02024
1.01818
1.01575
1.01298
1.00989
1.00648
1.00275
0.99867
0.994212
0.989329
0.983955
0.978029
0.971523
0.964366
0.956448
0.947686
0.938006
0.92733
0.915567
0.902639
0.888482
0.87303
0.856199
0.837935
0.818195
0.796954
0.774209
0.749975
0.724285
0.697223
0.668891
0.63942
0.608968
0.57772
0.545882
0.513677
0.481335
0.449093
0.41719
0.385853
0.355294
0.3257
0.297237
0.27004
0.24422
0.219854
0.19699
0.175649
0.155833
0.13752
0.120674
0.105241
0.0911669
0.0783796
0.0668009
0.0563574
0.0469783
0.0385795
0.0310848
0.0244349
0.0185871
0.0134647
0.00900133
0.00514866
0.00185049
-0.000927336
-0.00323685
-0.00512174
-0.00663431
-0.00782309
-0.00872905
-0.00939909
-0.0098716
-0.0101834
-0.0103674
-0.0104503
-0.0104503
-0.0103674
-0.0101834
-0.0098716
-0.00939909
-0.00872905
-0.00782309
-0.00663431
-0.00512174
-0.00323685
-0.000927336
0.00185049
0.00514866
0.00900133
0.0134647
0.0185871
0.0244349
0.0310848
0.0385795
0.0469783
0.0563574
0.0668009
0.0783796
0.0911669
0.105241
0.120674
0.13752
0.155833
0.175649
0.19699
0.219854
0.24422
0.27004
0.297237
0.3257
0.355294
0.385853
0.41719
0.449093
0.481335
0.513677
0.545882
0.57772
0.608968
0.63942
0.668891
0.697223
0.724285
0.749975
0.774209
0.796954
0.818195
0.837935
0.856199
0.87303
0.888482
0.902639
0.915567
0.92733
0.938006
0.947686
0.956448
0.964366
0.971523
0.978029
0.983955
0.989329
0.994212
0.99867
1.00275
1.00648
1.00989
1.01298
1.01575
1.01818
1.02024
1.0219
1.02315
1.024
1.02442
1.02625
1.02581
1.02495
1.02369
1.02204
1.01999
1.01757
1.01479
1.01169
1.00825
1.00447
1.00034
0.995819
0.990876
0.985442
0.979457
0.972893
0.965681
0.957709
0.948894
0.939161
0.928432
0.916615
0.903631
0.889421
0.873913
0.857026
0.838705
0.818905
0.797605
0.774797
0.750502
0.72475
0.697625
0.669229
0.639695
0.609179
0.577865
0.545961
0.513689
0.481282
0.448973
0.417005
0.385603
0.354979
0.325321
0.296794
0.269534
0.243652
0.219226
0.196303
0.174905
0.155033
0.136666
0.119767
0.104284
0.0901632
0.077332
0.0657119
0.0552297
0.0458151
0.0373844
0.0298621
0.0231891
0.0173229
0.0121879
0.00771655
0.00386003
0.000562683
-0.00221176
-0.00451608
-0.00639614
-0.00790564
-0.00909357
-0.0100013
-0.010675
-0.0111518
-0.0114683
-0.0116562
-0.0117409
-0.0117409
-0.0116562
-0.0114683
-0.0111518
-0.010675
-0.0100013
-0.00909357
-0.00790564
-0.00639614
-0.00451608
-0.00221176
0.000562683
0.00386003
0.00771655
0.0121879
0.0173229
0.0231891
0.0298621
0.0373844
0.0458151
0.0552297
0.0657119
0.077332
0.0901632
0.104284
0.119767
0.136666
0.155033
0.174905
0.196303
0.219226
0.243652
0.269534
0.296794
0.325321
0.354979
0.385603
0.417005
0.448973
0.481282
0.513689
0.545961
0.577865
0.609179
0.639695
0.669229
0.697625
0.72475
0.750502
0.774797
0.797605
0.818905
0.838705
0.857026
0.873913
0.889421
0.903631
0.916615
0.928432
0.939161
0.948894
0.957709
0.965681
0.972893
0.979457
0.985442
0.990876
0.995819
1.00034
1.00447
1.00825
1.01169
1.01479
1.01757
1.01999
1.02204
1.02369
1.02495
1.02581
1.02625
1.02822
1.02776
1.02688
1.02562
1.02397
1.02193
1.01951
1.01673
1.0136
1.01013
1.00631
1.00213
0.997555
0.99255
0.987054
0.981007
0.974382
0.967109
0.959079
0.950205
0.940415
0.929629
0.917753
0.904709
0.890439
0.874872
0.857924
0.83954
0.819676
0.79831
0.775437
0.751073
0.725254
0.698061
0.669597
0.639993
0.609406
0.578021
0.546045
0.513703
0.481224
0.448844
0.416804
0.38533
0.354636
0.324908
0.296312
0.268984
0.243034
0.218542
0.195555
0.174095
0.154162
0.135736
0.11878
0.103243
0.0890704
0.0761914
0.0645262
0.0540017
0.0445484
0.0360831
0.0285306
0.0218327
0.0159461
0.0107965
0.00631581
0.00245386
-0.000844118
-0.00361706
-0.0059184
-0.00779628
-0.00930539
-0.0104952
-0.0114072
-0.012087
-0.0125704
-0.0128935
-0.0130868
-0.0131744
-0.0131744
-0.0130868
-0.0128935
-0.0125704
-0.012087
-0.0114072
-0.0104952
-0.00930539
-0.00779628
-0.0059184
-0.00361706
-0.000844118
0.00245386
0.00631581
0.0107965
0.0159461
0.0218327
0.0285306
0.0360831
0.0445484
0.0540017
0.0645262
0.0761914
0.0890704
0.103243
0.11878
0.135736
0.154162
0.174095
0.195555
0.218542
0.243034
0.268984
0.296312
0.324908
0.354636
0.38533
0.416804
0.448844
0.481224
0.513703
0.546045
0.578021
0.609406
0.639993
0.669597
0.698061
0.725254
0.751073
0.775437
0.79831
0.819676
0.83954
0.857924
0.874872
0.890439
0.904709
0.917753
0.929629
0.940415
0.950205
0.959079
0.967109
0.974382
0.981007
0.987054
0.99255
0.997555
1.00213
1.00631
1.01013
1.0136
1.01673
1.01951
1.02193
1.02397
1.02562
1.02688
1.02776
1.02822
1.03037
1.02988
1.02898
1.02771
1.02605
1.02401
1.02159
1.0188
1.01566
1.01216
1.0083
1.00406
0.999431
0.994365
0.988805
0.982693
0.976002
0.968664
0.960571
0.951634
0.941781
0.930932
0.918992
0.905883
0.891548
0.875916
0.858901
0.840448
0.820515
0.799079
0.776132
0.751696
0.725804
0.698537
0.669998
0.640317
0.609654
0.578192
0.546139
0.513719
0.481161
0.448703
0.416585
0.385035
0.354264
0.32446
0.295789
0.268385
0.242362
0.217798
0.194741
0.173212
0.153213
0.134723
0.117705
0.102108
0.0878792
0.0749474
0.0632328
0.0526619
0.043166
0.0346625
0.027077
0.0203514
0.0144419
0.00927533
0.00478277
0.000913584
-0.00238737
-0.00516115
-0.00746237
-0.00934106
-0.0108527
-0.0120471
-0.012966
-0.0136543
-0.0141463
-0.0144778
-0.0146778
-0.0147692
-0.0147692
-0.0146778
-0.0144778
-0.0141463
-0.0136543
-0.012966
-0.0120471
-0.0108527
-0.00934106
-0.00746237
-0.00516115
-0.00238737
0.000913584
0.00478277
0.00927533
0.0144419
0.0203514
0.027077
0.0346625
0.043166
0.0526619
0.0632328
0.0749474
0.0878792
0.102108
0.117705
0.134723
0.153213
0.173212
0.194741
0.217798
0.242362
0.268385
0.295789
0.32446
0.354264
0.385035
0.416585
0.448703
0.481161
0.513719
0.546139
0.578192
0.609654
0.640317
0.669998
0.698537
0.725804
0.751696
0.776132
0.799079
0.820515
0.840448
0.858901
0.875916
0.891548
0.905883
0.918992
0.930932
0.941781
0.951634
0.960571
0.968664
0.976002
0.982693
0.988805
0.994365
0.999431
1.00406
1.0083
1.01216
1.01566
1.0188
1.02159
1.02401
1.02605
1.02771
1.02898
1.02988
1.03037
1.0327
1.03218
1.03126
1.02997
1.0283
1.02625
1.02383
1.02103
1.01787
1.01434
1.01044
1.00615
1.00147
0.996336
0.99071
0.98453
0.97777
0.970361
0.962198
0.953193
0.943272
0.932354
0.920344
0.907164
0.892758
0.877054
0.859966
0.84144
0.821431
0.799917
0.776892
0.752375
0.726403
0.699055
0.670435
0.640672
0.609925
0.578379
0.546241
0.513735
0.481093
0.448549
0.416347
0.384711
0.353856
0.323969
0.295215
0.26773
0.241627
0.216985
0.193851
0.172246
0.152174
0.133615
0.116529
0.100866
0.0865753
0.073586
0.0618168
0.0511949
0.041652
0.0331066
0.0254842
0.018728
0.0127925
0.00760594
0.00309884
-0.000780478
-0.00408721
-0.00686509
-0.00916958
-0.0110525
-0.0125698
-0.0137713
-0.0146988
-0.0153966
-0.0158976
-0.0162368
-0.0164426
-0.0165372
-0.0165372
-0.0164426
-0.0162368
-0.0158976
-0.0153966
-0.0146988
-0.0137713
-0.0125698
-0.0110525
-0.00916958
-0.00686509
-0.00408721
-0.000780478
0.00309884
0.00760594
0.0127925
0.018728
0.0254842
0.0331066
0.041652
0.0511949
0.0618168
0.073586
0.0865753
0.100866
0.116529
0.133615
0.152174
0.172246
0.193851
0.216985
0.241627
0.26773
0.295215
0.323969
0.353856
0.384711
0.416347
0.448549
0.481093
0.513735
0.546241
0.578379
0.609925
0.640672
0.670435
0.699055
0.726403
0.752375
0.776892
0.799917
0.821431
0.84144
0.859966
0.877054
0.892758
0.907164
0.920344
0.932354
0.943272
0.953193
0.962198
0.970361
0.97777
0.98453
0.99071
0.996336
1.00147
1.00615
1.01044
1.01434
1.01787
1.02103
1.02383
1.02625
1.0283
1.02997
1.03126
1.03218
1.0327
1.03524
1.03468
1.03374
1.03242
1.03073
1.02868
1.02624
1.02344
1.02026
1.0167
1.01276
1.00843
1.00368
0.998482
0.992787
0.986535
0.9797
0.972214
0.963976
0.954896
0.9449
0.933907
0.921821
0.908563
0.89408
0.878298
0.861131
0.842524
0.822432
0.800834
0.777723
0.753119
0.727059
0.699624
0.670914
0.641061
0.610223
0.578584
0.546354
0.513755
0.48102
0.448383
0.416088
0.384359
0.353412
0.323434
0.29459
0.267015
0.240824
0.216097
0.192879
0.171192
0.15104
0.132403
0.115242
0.0995075
0.0851487
0.0720954
0.060266
0.0495873
0.0399922
0.0313999
0.0237365
0.0169452
0.0109799
0.00576915
0.00124349
-0.00264967
-0.00596645
-0.00875261
-0.0110648
-0.012956
-0.0144823
-0.0156935
-0.0166313
-0.0173393
-0.017849
-0.0181951
-0.0184057
-0.0185026
-0.0185026
-0.0184057
-0.0181951
-0.017849
-0.0173393
-0.0166313
-0.0156935
-0.0144823
-0.012956
-0.0110648
-0.00875261
-0.00596645
-0.00264967
0.00124349
0.00576915
0.0109799
0.0169452
0.0237365
0.0313999
0.0399922
0.0495873
0.060266
0.0720954
0.0851487
0.0995075
0.115242
0.132403
0.15104
0.171192
0.192879
0.216097
0.240824
0.267015
0.29459
0.323434
0.353412
0.384359
0.416088
0.448383
0.48102
0.513755
0.546354
0.578584
0.610223
0.641061
0.670914
0.699624
0.727059
0.753119
0.777723
0.800834
0.822432
0.842524
0.861131
0.878298
0.89408
0.908563
0.921821
0.933907
0.9449
0.954896
0.963976
0.972214
0.9797
0.986535
0.992787
0.998482
1.00368
1.00843
1.01276
1.0167
1.02026
1.02344
1.02624
1.02868
1.03073
1.03242
1.03374
1.03468
1.03524
1.03801
1.03742
1.03643
1.03509
1.03338
1.03131
1.02886
1.02604
1.02284
1.01925
1.01527
1.01089
1.00609
1.00082
0.995052
0.988723
0.981808
0.974241
0.965921
0.956759
0.946681
0.935605
0.923435
0.910093
0.895525
0.879658
0.862405
0.843709
0.823527
0.801837
0.778632
0.753932
0.727777
0.700245
0.671437
0.641486
0.610549
0.578809
0.546477
0.513778
0.480941
0.448202
0.415804
0.383975
0.352927
0.322849
0.293906
0.266233
0.239946
0.215125
0.191814
0.170037
0.149798
0.131076
0.113833
0.0980197
0.0835857
0.0704618
0.0585656
0.0478244
0.0381714
0.0295271
0.0218177
0.014987
0.00898712
0.00374769
-0.00080106
-0.00471278
-0.00804448
-0.0108443
-0.0131695
-0.0150741
-0.0166137
-0.0178382
-0.0187894
-0.0195101
-0.0200303
-0.0203848
-0.0206014
-0.0207016
-0.0207016
-0.0206014
-0.0203848
-0.0200303
-0.0195101
-0.0187894
-0.0178382
-0.0166137
-0.0150741
-0.0131695
-0.0108443
-0.00804448
-0.00471278
-0.00080106
0.00374769
0.00898712
0.014987
0.0218177
0.0295271
0.0381714
0.0478244
0.0585656
0.0704618
0.0835857
0.0980197
0.113833
0.131076
0.149798
0.170037
0.191814
0.215125
0.239946
0.266233
0.293906
0.322849
0.352927
0.383975
0.415804
0.448202
0.480941
0.513778
0.546477
0.578809
0.610549
0.641486
0.671437
0.700245
0.727777
0.753932
0.778632
0.801837
0.823527
0.843709
0.862405
0.879658
0.895525
0.910093
0.923435
0.935605
0.946681
0.956759
0.965921
0.974241
0.981808
0.988723
0.995052
1.00082
1.00609
1.01089
1.01527
1.01925
1.02284
1.02604
1.02886
1.03131
1.03338
1.03509
1.03643
1.03742
1.03801
1.04103
1.0404
1.03938
1.038
1.03626
1.03417
1.03171
1.02887
1.02565
1.02203
1.01801
1.01358
1.00871
1.00337
0.997526
0.991117
0.984117
0.97646
0.968051
0.958799
0.948632
0.937465
0.925204
0.91177
0.897109
0.881149
0.8638
0.845007
0.824727
0.802936
0.779629
0.754825
0.728565
0.700928
0.672013
0.641954
0.610907
0.579058
0.546615
0.513805
0.480856
0.448005
0.415496
0.383556
0.352398
0.32221
0.293158
0.265379
0.238986
0.214061
0.190649
0.168773
0.148437
0.129622
0.112289
0.0963887
0.0818718
0.0686696
0.0566996
0.0458888
0.0361715
0.0274692
0.0197083
0.0128328
0.00679305
0.00151962
-0.00305772
-0.00699342
-0.010346
-0.0131655
-0.0155098
-0.0174337
-0.0189919
-0.0202343
-0.0212027
-0.0219394
-0.0224732
-0.0228383
-0.0230627
-0.0231668
-0.0231668
-0.0230627
-0.0228383
-0.0224732
-0.0219394
-0.0212027
-0.0202343
-0.0189919
-0.0174337
-0.0155098
-0.0131655
-0.010346
-0.00699342
-0.00305772
0.00151962
0.00679305
0.0128328
0.0197083
0.0274692
0.0361715
0.0458888
0.0566996
0.0686696
0.0818718
0.0963887
0.112289
0.129622
0.148437
0.168773
0.190649
0.214061
0.238986
0.265379
0.293158
0.32221
0.352398
0.383556
0.415496
0.448005
0.480856
0.513805
0.546615
0.579058
0.610907
0.641954
0.672013
0.700928
0.728565
0.754825
0.779629
0.802936
0.824727
0.845007
0.8638
0.881149
0.897109
0.91177
0.925204
0.937465
0.948632
0.958799
0.968051
0.97646
0.984117
0.991117
0.997526
1.00337
1.00871
1.01358
1.01801
1.02203
1.02565
1.02887
1.03171
1.03417
1.03626
1.038
1.03938