TITLE: "QKFVS Viscous Code - NAL"
VARIABLES= "X", "Y", "Density", "Pressure", "x-velocity", "y-velocity", "Velocity Magnitude", "Temperature"
ZONE I= 298 J= 179, DATAPACKING=BLOCK
0.000445141
0.000444788
0.000444416
0.00044402
0.0004436
0.000443156
0.000442688
0.000442193
0.000441672
0.000441122
0.000440542
0.000439929
0.000439282
0.000438598
0.000437876
0.000437112
0.000436306
0.000435454
0.000434555
0.000433605
0.000432602
0.000431543
0.000430424
0.000429244
0.000427999
0.000426686
0.000425302
0.000423843
0.000422306
0.000420686
0.000418981
0.000417186
0.000415298
0.000413314
0.000411227
0.000409036
0.000406736
0.000404322
0.00040179
0.000399138
0.000396361
0.000393455
0.000390416
0.00038724
0.000383925
0.000380468
0.000376865
0.000373113
0.00036921
0.000365155
0.000360945
0.00035658
0.000352058
0.00034738
0.000342546
0.000337557
0.000332414
0.00032712
0.000321678
0.00031609
0.000310363
0.000304501
0.000298509
0.000292394
0.000286164
0.000279825
0.000273387
0.000266859
0.00026025
0.00025357
0.000246831
0.000240043
0.000233218
0.000226367
0.000219503
0.000212638
0.000205783
0.000198951
0.000192152
0.0001854
0.000178704
0.000172076
0.000165526
0.000159065
0.000152701
0.000146444
0.000140301
0.000134281
0.00012839
0.000122634
0.000117019
0.000111548
0.000106227
0.000101058
9.60454e-05
9.1188e-05
8.6489e-05
8.19484e-05
7.75667e-05
7.33433e-05
6.92768e-05
6.53671e-05
6.16104e-05
5.8007e-05
5.45516e-05
5.12441e-05
4.80793e-05
4.50559e-05
4.21685e-05
3.94149e-05
3.67906e-05
3.42916e-05
3.19157e-05
2.96556e-05
2.75124e-05
2.54761e-05
2.35471e-05
2.17206e-05
1.99913e-05
1.83615e-05
1.68172e-05
1.53625e-05
1.39972e-05
1.27056e-05
1.14965e-05
1.03643e-05
9.29749e-06
8.30705e-06
7.38466e-06
6.51733e-06
5.722e-06
4.99131e-06
4.30073e-06
3.67906e-06
3.12718e-06
2.60526e-06
2.1388e-06
1.743e-06
1.3847e-06
1.04702e-06
7.78112e-07
5.7623e-07
3.8657e-07
2.06325e-07
8.66811e-08
2.80487e-08
-2.49324e-08
-7.48617e-08
-1.23661e-07
-1.23733e-07
-7.50542e-08
-2.52203e-08
2.76906e-08
8.62725e-08
2.05862e-07
3.8607e-07
5.75713e-07
7.77591e-07
1.0465e-06
1.38419e-06
1.74249e-06
2.13826e-06
2.60471e-06
3.12665e-06
3.67851e-06
4.30011e-06
4.99064e-06
5.72127e-06
6.51655e-06
7.38383e-06
8.30604e-06
9.29638e-06
1.03632e-05
1.14953e-05
1.27043e-05
1.39959e-05
1.53614e-05
1.68163e-05
1.83607e-05
1.99905e-05
2.17197e-05
2.35464e-05
2.54754e-05
2.7512e-05
2.96554e-05
3.19156e-05
3.42917e-05
3.67908e-05
3.94153e-05
4.2169e-05
4.50565e-05
4.808e-05
5.12448e-05
5.45523e-05
5.80075e-05
6.1611e-05
6.53678e-05
6.92773e-05
7.33439e-05
7.75672e-05
8.19489e-05
8.64893e-05
9.11884e-05
9.60457e-05
0.000101059
0.000106228
0.000111549
0.000117019
0.000122634
0.00012839
0.000134281
0.000140301
0.000146444
0.000152701
0.000159065
0.000165526
0.000172076
0.000178704
0.0001854
0.000192152
0.000198951
0.000205783
0.000212638
0.000219503
0.000226367
0.000233218
0.000240043
0.00024683
0.00025357
0.00026025
0.000266858
0.000273387
0.000279825
0.000286164
0.000292394
0.000298509
0.000304501
0.000310363
0.000316091
0.000321678
0.00032712
0.000332414
0.000337557
0.000342546
0.000347381
0.000352059
0.000356581
0.000360946
0.000365157
0.000369212
0.000373114
0.000376866
0.00038047
0.000383927
0.000387242
0.000390417
0.000393457
0.000396362
0.00039914
0.000401792
0.000404323
0.000406737
0.000409038
0.000411229
0.000413315
0.0004153
0.000417188
0.000418982
0.000420688
0.000422307
0.000423845
0.000425304
0.000426688
0.000428
0.000429245
0.000430425
0.000431543
0.000432602
0.000433605
0.000434554
0.000435453
0.000436305
0.000437111
0.000437875
0.000438597
0.00043928
0.000439928
0.00044054
0.000441121
0.000441671
0.000442192
0.000442687
0.000443155
0.000443598
0.000444018
0.000444415
0.000444787
0.00044514
0.000445506
0.000445161
0.000444781
0.000444368
0.000443927
0.000443461
0.000442971
0.000442458
0.00044192
0.000441355
0.000440762
0.000440139
0.000439482
0.00043879
0.000438061
0.000437291
0.000436479
0.000435623
0.000434721
0.000433768
0.000432763
0.000431701
0.000430581
0.000429399
0.000428152
0.000426838
0.000425454
0.000423995
0.000422458
0.000420837
0.000419131
0.000417336
0.000415447
0.000413462
0.000411375
0.000409183
0.000406881
0.000404465
0.000401932
0.000399278
0.000396498
0.00039359
0.000390548
0.00038737
0.000384052
0.000380592
0.000376984
0.000373229
0.000369323
0.000365264
0.000361049
0.00035668
0.000352153
0.000347471
0.000342632
0.000337638
0.000332491
0.000327192
0.000321745
0.000316153
0.000310422
0.000304555
0.00029856
0.000292442
0.000286208
0.000279866
0.000273426
0.000266895
0.000260283
0.000253601
0.000246859
0.000240068
0.00023324
0.000226387
0.000219519
0.000212651
0.000205793
0.000198958
0.000192156
0.000185399
0.000178699
0.000172066
0.000165511
0.000159044
0.000152675
0.000146412
0.000140262
0.000134237
0.000128339
0.000122578
0.000116956
0.00011148
0.000106154
0.000100979
9.59603e-05
9.10976e-05
8.63932e-05
8.18476e-05
7.74602e-05
7.32322e-05
6.91607e-05
6.52465e-05
6.1485e-05
5.78774e-05
5.44178e-05
5.11065e-05
4.79378e-05
4.49114e-05
4.20212e-05
3.9265e-05
3.66383e-05
3.41372e-05
3.17594e-05
2.94969e-05
2.73516e-05
2.53122e-05
2.33805e-05
2.15517e-05
1.98197e-05
1.81884e-05
1.66418e-05
1.51834e-05
1.3816e-05
1.25209e-05
1.13075e-05
1.01724e-05
9.1015e-06
8.1059e-06
7.18002e-06
6.30815e-06
5.50686e-06
4.7726e-06
4.07823e-06
3.44901e-06
2.8925e-06
2.36786e-06
1.89603e-06
1.49515e-06
1.13427e-06
7.95401e-07
5.21665e-07
3.15551e-07
1.25215e-07
-5.35752e-08
-1.75378e-07
-2.38071e-07
-2.92047e-07
-3.41233e-07
-3.86696e-07
-3.86886e-07
-3.41763e-07
-2.92852e-07
-2.39083e-07
-1.76547e-07
-5.49252e-08
1.23704e-07
3.13931e-07
5.19962e-07
7.93622e-07
1.13245e-06
1.4933e-06
1.89411e-06
2.36593e-06
2.89068e-06
3.44718e-06
4.07627e-06
4.77059e-06
5.50471e-06
6.30586e-06
7.17758e-06
8.10315e-06
9.09826e-06
1.01691e-05
1.1304e-05
1.25172e-05
1.38123e-05
1.51804e-05
1.66393e-05
1.81862e-05
1.98175e-05
2.15496e-05
2.33785e-05
2.53106e-05
2.73505e-05
2.94964e-05
3.17597e-05
3.41376e-05
3.66393e-05
3.92662e-05
4.20227e-05
4.49134e-05
4.79401e-05
5.11086e-05
5.44196e-05
5.78793e-05
6.1487e-05
6.52482e-05
6.91625e-05
7.3234e-05
7.74618e-05
8.18489e-05
8.63943e-05
9.10986e-05
9.59614e-05
0.00010098
0.000106155
0.000111481
0.000116957
0.000122578
0.00012834
0.000134237
0.000140263
0.000146412
0.000152675
0.000159045
0.000165512
0.000172066
0.000178699
0.0001854
0.000192156
0.000198958
0.000205794
0.000212651
0.00021952
0.000226386
0.000233239
0.000240068
0.000246858
0.0002536
0.000260283
0.000266894
0.000273425
0.000279866
0.000286207
0.000292442
0.00029856
0.000304556
0.000310422
0.000316154
0.000321746
0.000327192
0.000332491
0.00033764
0.000342634
0.000347473
0.000352156
0.000356683
0.000361053
0.000365267
0.000369326
0.000373234
0.000376989
0.000380596
0.000384057
0.000387375
0.000390553
0.000393594
0.000396503
0.000399283
0.000401937
0.00040447
0.000406885
0.000409187
0.000411379
0.000413465
0.000415451
0.000417339
0.000419135
0.000420841
0.000422461
0.000423998
0.000425457
0.000426841
0.000428155
0.000429401
0.000430582
0.000431702
0.000432762
0.000433767
0.000434719
0.000435621
0.000436476
0.000437288
0.000438057
0.000438786
0.000439478
0.000440134
0.000440757
0.000441351
0.000441915
0.000442453
0.000442966
0.000443456
0.000443921
0.000444363
0.000444776
0.000445157
0.000445504
0.000445878
0.000445554
0.000445178
0.000444757
0.000444302
0.000443819
0.000443312
0.000442782
0.000442229
0.000441652
0.000441048
0.000440415
0.00043975
0.000439051
0.000438315
0.000437539
0.000436722
0.000435861
0.000434955
0.000433999
0.00043299
0.000431925
0.000430802
0.000429617
0.000428367
0.000427051
0.000425664
0.000424203
0.000422664
0.000421042
0.000419334
0.000417536
0.000415644
0.000413656
0.000411566
0.00040937
0.000407066
0.000404647
0.00040211
0.000399452
0.000396668
0.000393755
0.000390709
0.000387527
0.000384205
0.00038074
0.000377129
0.000373369
0.000369458
0.000365394
0.000361175
0.000356801
0.000352269
0.000347582
0.000342737
0.000337738
0.000332585
0.000327281
0.000321829
0.000316232
0.000310495
0.000304623
0.000298623
0.0002925
0.000286261
0.000279915
0.00027347
0.000266935
0.000260319
0.000253633
0.000246887
0.000240092
0.00023326
0.000226402
0.000219531
0.000212658
0.000205795
0.000198955
0.000192148
0.000185386
0.00017868
0.000172041
0.000165481
0.000159007
0.000152632
0.000146363
0.000140208
0.000134175
0.000128272
0.000122504
0.000116877
0.000111395
0.000106063
0.000100883
9.58583e-05
9.09901e-05
8.62799e-05
8.17288e-05
7.7336e-05
7.31029e-05
6.90261e-05
6.51068e-05
6.13406e-05
5.77281e-05
5.42637e-05
5.0948e-05
4.7775e-05
4.47447e-05
4.18508e-05
3.90912e-05
3.64614e-05
3.39567e-05
3.15762e-05
2.93105e-05
2.71626e-05
2.512e-05
2.31857e-05
2.13546e-05
1.96203e-05
1.79873e-05
1.6439e-05
1.49788e-05
1.36094e-05
1.23124e-05
1.10969e-05
9.96039e-06
8.88805e-06
7.8906e-06
6.96286e-06
6.08984e-06
5.28717e-06
4.55143e-06
3.85705e-06
3.22654e-06
2.6679e-06
2.14368e-06
1.67244e-06
1.27029e-06
9.08676e-07
5.72791e-07
2.99581e-07
9.10288e-08
-9.91331e-08
-2.73771e-07
-3.94731e-07
-4.60855e-07
-5.15941e-07
-5.63788e-07
-6.04997e-07
-6.05279e-07
-5.64589e-07
-5.17188e-07
-4.62441e-07
-3.9659e-07
-2.75965e-07
-1.01661e-07
8.821e-08
2.9648e-07
5.6941e-07
9.05146e-07
1.26664e-06
1.66863e-06
2.1399e-06
2.6644e-06
3.22317e-06
3.85367e-06
4.54813e-06
5.28383e-06
6.08641e-06
6.95932e-06
7.88655e-06
8.88337e-06
9.95559e-06
1.1092e-05
1.23071e-05
1.36044e-05
1.49744e-05
1.64356e-05
1.79846e-05
1.96176e-05
2.1352e-05
2.31834e-05
2.51183e-05
2.71614e-05
2.93103e-05
3.15769e-05
3.39581e-05
3.64632e-05
3.90935e-05
4.18537e-05
4.47481e-05
4.77789e-05
5.09517e-05
5.42669e-05
5.77313e-05
6.13436e-05
6.51098e-05
6.9029e-05
7.31055e-05
7.73386e-05
8.17309e-05
8.62814e-05
9.09915e-05
9.58599e-05
0.000100884
0.000106065
0.000111396
0.000116878
0.000122506
0.000128273
0.000134176
0.000140208
0.000146363
0.000152633
0.000159008
0.000165481
0.000172042
0.00017868
0.000185387
0.000192148
0.000198956
0.000205796
0.000212658
0.000219531
0.000226402
0.000233259
0.000240091
0.000246886
0.000253632
0.000260318
0.000266934
0.000273469
0.000279914
0.00028626
0.0002925
0.000298623
0.000304624
0.000310496
0.000316233
0.00032183
0.000327283
0.000332587
0.000337741
0.000342741
0.000347585
0.000352273
0.000356805
0.00036118
0.000365399
0.000369464
0.000373376
0.000377136
0.000380748
0.000384213
0.000387535
0.000390717
0.000393763
0.000396675
0.000399459
0.000402117
0.000404653
0.000407071
0.000409376
0.000411571
0.00041366
0.000415648
0.00041754
0.000419338
0.000421046
0.000422669
0.000424209
0.00042567
0.000427055
0.00042837
0.000429619
0.000430803
0.000431925
0.000432988
0.000433996
0.000434951
0.000435856
0.000436715
0.000437531
0.000438306
0.000439041
0.00043974
0.000440404
0.000441037
0.000441641
0.000442218
0.00044277
0.000443299
0.000443806
0.00044429
0.000444747
0.000445169
0.000445547
0.000445875
0.000446253
0.000445956
0.000445592
0.000445171
0.000444707
0.000444211
0.000443689
0.000443144
0.000442577
0.000441988
0.000441373
0.000440731
0.000440058
0.000439351
0.000438609
0.000437827
0.000437004
0.000436138
0.000435226
0.000434266
0.000433253
0.000432184
0.000431057
0.000429868
0.000428614
0.000427294
0.000425903
0.000424439
0.000422896
0.000421271
0.000419559
0.000417757
0.000415862
0.00041387
0.000411775
0.000409576
0.000407267
0.000404843
0.000402302
0.000399639
0.000396851
0.000393934
0.000390883
0.000387696
0.000384369
0.0003809
0.000377283
0.000373519
0.000369603
0.000365534
0.00036131
0.00035693
0.000352393
0.000347701
0.000342851
0.000337846
0.000332688
0.000327378
0.00032192
0.000316318
0.000310576
0.000304698
0.000298693
0.000292563
0.000286319
0.000279968
0.000273518
0.000266977
0.000260357
0.000253665
0.000246914
0.000240115
0.000233278
0.000226415
0.000219539
0.00021266
0.000205793
0.000198946
0.000192133
0.000185365
0.000178653
0.000172009
0.000165443
0.000158963
0.000152582
0.000146306
0.000140145
0.000134107
0.000128198
0.000122424
0.000116791
0.000111303
0.000105966
0.000100779
9.57494e-05
9.08752e-05
8.61598e-05
8.16033e-05
7.72051e-05
7.29668e-05
6.8885e-05
6.49606e-05
6.11893e-05
5.7572e-05
5.41031e-05
5.07828e-05
4.76052e-05
4.4571e-05
4.16731e-05
3.89098e-05
3.62764e-05
3.37683e-05
3.13843e-05
2.91156e-05
2.69644e-05
2.49192e-05
2.2982e-05
2.11484e-05
1.9412e-05
1.77771e-05
1.6227e-05
1.47653e-05
1.33943e-05
1.2096e-05
1.08798e-05
9.74219e-06
8.66969e-06
7.67179e-06
6.74323e-06
5.87096e-06
5.06904e-06
4.33294e-06
3.64065e-06
3.01179e-06
2.45243e-06
1.93061e-06
1.46271e-06
1.06097e-06
7.0007e-07
3.69167e-07
9.85492e-08
-1.11662e-07
-3.00751e-07
-4.70161e-07
-5.89297e-07
-6.58545e-07
-7.14517e-07
-7.60731e-07
-7.97438e-07
-7.97797e-07
-7.61773e-07
-7.16173e-07
-6.60665e-07
-5.91791e-07
-4.73125e-07
-3.04235e-07
-1.1566e-07
9.40217e-08
3.64118e-07
6.94699e-07
1.05535e-06
1.45682e-06
1.92478e-06
2.44707e-06
3.00676e-06
3.6358e-06
4.32842e-06
5.06471e-06
5.86673e-06
6.73898e-06
7.66719e-06
8.6644e-06
9.73679e-06
1.08743e-05
1.20903e-05
1.33889e-05
1.47608e-05
1.62236e-05
1.77745e-05
1.94097e-05
2.11462e-05
2.29802e-05
2.49177e-05
2.6964e-05
2.9116e-05
3.13862e-05
3.37707e-05
3.62793e-05
3.89134e-05
4.16774e-05
4.4576e-05
4.76109e-05
5.0788e-05
5.41076e-05
5.75765e-05
6.11937e-05
6.49648e-05
6.88888e-05
7.29703e-05
7.72086e-05
8.16059e-05
8.6162e-05
9.08771e-05
9.57512e-05
0.000100781
0.000105968
0.000111305
0.000116793
0.000122425
0.000128198
0.000134108
0.000140146
0.000146307
0.000152583
0.000158964
0.000165443
0.00017201
0.000178654
0.000185367
0.000192134
0.000198947
0.000205793
0.00021266
0.000219539
0.000226414
0.000233277
0.000240114
0.000246913
0.000253664
0.000260355
0.000266976
0.000273516
0.000279966
0.000286317
0.000292563
0.000298692
0.000304699
0.000310576
0.00031632
0.000321923
0.00032738
0.000332691
0.00033785
0.000342855
0.000347705
0.000352399
0.000356936
0.000361316
0.00036554
0.00036961
0.000373527
0.000377292
0.000380909
0.000384379
0.000387706
0.000390893
0.000393943
0.000396861
0.000399648
0.00040231
0.00040485
0.000407273
0.000409582
0.000411781
0.000413874
0.000415866
0.000417761
0.000419563
0.000421275
0.000422901
0.000424444
0.000425909
0.000427298
0.000428617
0.000429868
0.000431056
0.000432182
0.000433249
0.00043426
0.000435218
0.000436128
0.000436992
0.000437813
0.000438593
0.000439334
0.00044004
0.000440712
0.000441353
0.000441968
0.000442557
0.000443122
0.000443667
0.00044419
0.000444688
0.000445155
0.000445578
0.000445945
0.000446249
0.00044663
0.00044636
0.000446011
0.000445596
0.000445129
0.000444624
0.000444089
0.000443531
0.000442951
0.000442349
0.000441724
0.000441072
0.000440391
0.000439677
0.000438928
0.00043814
0.000437311
0.00043644
0.000435523
0.000434557
0.000433539
0.000432466
0.000431333
0.00043014
0.000428881
0.000427556
0.000426161
0.000424692
0.000423145
0.000421515
0.000419799
0.000417993
0.000416093
0.000414095
0.000411996
0.000409792
0.000407478
0.00040505
0.000402504
0.000399836
0.000397043
0.00039412
0.000391064
0.000387872
0.00038454
0.000381065
0.000377444
0.000373674
0.000369753
0.000365679
0.00036145
0.000357065
0.000352523
0.000347825
0.00034297
0.000337959
0.000332795
0.00032748
0.000322016
0.000316408
0.000310661
0.000304778
0.000298765
0.000292631
0.000286381
0.000280023
0.000273567
0.000267021
0.000260395
0.000253698
0.000246942
0.000240137
0.000233294
0.000226427
0.000219544
0.00021266
0.000205786
0.000198934
0.000192114
0.00018534
0.000178622
0.000171972
0.0001654
0.000158914
0.000152526
0.000146244
0.000140077
0.000134033
0.000128118
0.000122339
0.0001167
0.000111206
0.000105863
0.000100671
9.5636e-05
9.07564e-05
8.60356e-05
8.14733e-05
7.70702e-05
7.28265e-05
6.87399e-05
6.48104e-05
6.10342e-05
5.74122e-05
5.39385e-05
5.06135e-05
4.74316e-05
4.43933e-05
4.14914e-05
3.87242e-05
3.6087e-05
3.35754e-05
3.1188e-05
2.8916e-05
2.6762e-05
2.47136e-05
2.27741e-05
2.0938e-05
1.91995e-05
1.75622e-05
1.60106e-05
1.45481e-05
1.31752e-05
1.18763e-05
1.06599e-05
9.52177e-06
8.44977e-06
7.45239e-06
6.52377e-06
5.65355e-06
4.8533e-06
4.11769e-06
3.42873e-06
2.80289e-06
2.24394e-06
1.72585e-06
1.26238e-06
8.61961e-07
5.02963e-07
1.77904e-07
-8.94825e-08
-3.00687e-07
-4.87979e-07
-6.51951e-07
-7.69046e-07
-8.40928e-07
-8.97451e-07
-9.41922e-07
-9.74453e-07
-9.74881e-07
-9.43186e-07
-8.99499e-07
-8.43556e-07
-7.72125e-07
-6.55615e-07
-4.92353e-07
-3.05815e-07
-9.54071e-08
1.71195e-07
4.95735e-07
8.5432e-07
1.25435e-06
1.71789e-06
2.23664e-06
2.79614e-06
3.42241e-06
4.11198e-06
4.8481e-06
5.64873e-06
6.51921e-06
7.44758e-06
8.44449e-06
9.51649e-06
1.06548e-05
1.18712e-05
1.31703e-05
1.4544e-05
1.6008e-05
1.75605e-05
1.9198e-05
2.09367e-05
2.2773e-05
2.47134e-05
2.67623e-05
2.89176e-05
3.11908e-05
3.3579e-05
3.60913e-05
3.87294e-05
4.14972e-05
4.44e-05
4.7439e-05
5.06205e-05
5.39445e-05
5.74179e-05
6.10399e-05
6.48156e-05
6.87444e-05
7.28311e-05
7.70742e-05
8.14769e-05
8.6038e-05
9.07586e-05
9.56381e-05
0.000100674
0.000105865
0.000111209
0.000116702
0.00012234
0.00012812
0.000134035
0.000140079
0.000146246
0.000152527
0.000158915
0.0001654
0.000171972
0.000178623
0.000185342
0.000192115
0.000198935
0.000205786
0.00021266
0.000219544
0.000226425
0.000233293
0.000240136
0.00024694
0.000253696
0.000260393
0.000267019
0.000273564
0.000280021
0.000286378
0.000292629
0.000298765
0.000304777
0.000310661
0.00031641
0.000322019
0.000327483
0.000332799
0.000337964
0.000342975
0.00034783
0.000352529
0.000357072
0.000361458
0.000365687
0.000369763
0.000373685
0.000377455
0.000381077
0.000384552
0.000387885
0.000391076
0.000394131
0.000397053
0.000399846
0.000402512
0.000405058
0.000407484
0.000409798
0.000412001
0.000414099
0.000416095
0.000417994
0.000419801
0.000421518
0.000423149
0.000424697
0.000426166
0.000427559
0.000428882
0.000430138
0.000431329
0.00043246
0.000433531
0.000434546
0.000435509
0.000436423
0.000437292
0.000438118
0.000438904
0.000439651
0.000440363
0.000441043
0.000441694
0.000442318
0.000442919
0.000443498
0.000444056
0.000444593
0.000445102
0.000445573
0.000445993
0.000446346
0.000446624
0.000447007
0.000446763
0.00044643
0.000446023
0.000445557
0.000445046
0.000444503
0.000443932
0.00044334
0.000442726
0.00044209
0.000441429
0.000440739
0.000440017
0.000439261
0.000438467
0.000437632
0.000436754
0.000435831
0.00043486
0.000433837
0.000432758
0.000431621
0.000430422
0.000429159
0.000427828
0.000426428
0.000424955
0.000423403
0.000421768
0.000420047
0.000418236
0.000416331
0.000414328
0.000412224
0.000410014
0.000407695
0.000405261
0.00040271
0.000400037
0.000397238
0.00039431
0.000391248
0.000388052
0.000384715
0.000381235
0.000377609
0.000373834
0.000369907
0.000365828
0.000361593
0.000357202
0.000352655
0.000347952
0.000343091
0.000338075
0.000332905
0.000327584
0.000322114
0.000316501
0.000310748
0.000304858
0.00029884
0.0002927
0.000286444
0.00028008
0.000273617
0.000267065
0.000260433
0.000253731
0.000246969
0.000240158
0.000233311
0.000226437
0.000219547
0.000212657
0.000205777
0.000198918
0.000192093
0.000185312
0.000178588
0.000171932
0.000165353
0.000158861
0.000152467
0.00014618
0.000140007
0.000133957
0.000128036
0.000122251
0.000116606
0.000111107
0.000105758
0.000100561
9.55195e-05
9.06347e-05
8.59085e-05
8.13411e-05
7.69328e-05
7.2684e-05
6.85921e-05
6.46578e-05
6.08769e-05
5.725e-05
5.37719e-05
5.04421e-05
4.72562e-05
4.42135e-05
4.13076e-05
3.85365e-05
3.58953e-05
3.33803e-05
3.09893e-05
2.87143e-05
2.6557e-05
2.45064e-05
2.25644e-05
2.07259e-05
1.89856e-05
1.73459e-05
1.57929e-05
1.43297e-05
1.29553e-05
1.16563e-05
1.044e-05
9.30144e-06
8.23063e-06
7.23407e-06
6.30619e-06
5.43853e-06
4.64045e-06
3.90591e-06
3.22082e-06
2.59863e-06
2.041e-06
1.52729e-06
1.06864e-06
6.70139e-07
3.13841e-07
-5.22989e-09
-2.69184e-07
-4.80784e-07
-6.65843e-07
-8.24641e-07
-9.39702e-07
-1.01367e-06
-1.07046e-06
-1.11324e-06
-1.14218e-06
-1.14267e-06
-1.11472e-06
-1.07288e-06
-1.01678e-06
-9.43325e-07
-8.2895e-07
-6.71053e-07
-4.86999e-07
-2.76473e-07
-1.35684e-08
3.04765e-07
6.60473e-07
1.05846e-06
1.5172e-06
2.03173e-06
2.59014e-06
3.21304e-06
3.89902e-06
4.63442e-06
5.43322e-06
6.30136e-06
7.22942e-06
8.22571e-06
9.29676e-06
1.04357e-05
1.16521e-05
1.29514e-05
1.43265e-05
1.57915e-05
1.73455e-05
1.89854e-05
2.07258e-05
2.25647e-05
2.45072e-05
2.65586e-05
2.87171e-05
3.09934e-05
3.33853e-05
3.59012e-05
3.85431e-05
4.13151e-05
4.42217e-05
4.72652e-05
5.04508e-05
5.37792e-05
5.72571e-05
6.08839e-05
6.46641e-05
6.8598e-05
7.26892e-05
7.69377e-05
8.13449e-05
8.59113e-05
9.06373e-05
9.55222e-05
0.000100563
0.000105761
0.00011111
0.000116609
0.000122253
0.000128037
0.000133959
0.000140008
0.000146181
0.000152469
0.000158862
0.000165353
0.000171932
0.000178589
0.000185314
0.000192094
0.000198919
0.000205778
0.000212657
0.000219547
0.000226435
0.000233309
0.000240156
0.000246967
0.000253728
0.00026043
0.000267063
0.000273615
0.000280077
0.000286439
0.000292697
0.000298839
0.000304858
0.000310748
0.000316503
0.000322118
0.000327588
0.00033291
0.000338081
0.000343097
0.000347958
0.000352663
0.000357211
0.000361602
0.000365838
0.000369918
0.000373845
0.000377621
0.000381248
0.000384729
0.000388066
0.000391263
0.000394323
0.00039725
0.000400048
0.00040272
0.000405269
0.000407701
0.000410019
0.000412228
0.00041433
0.000416331
0.000418235
0.000420046
0.000421768
0.000423404
0.000424957
0.000426431
0.00042783
0.000429157
0.000430417
0.000431614
0.000432748
0.000433824
0.000434844
0.000435812
0.000436731
0.000437605
0.000438436
0.000439227
0.000439981
0.0004407
0.000441388
0.000442049
0.000442684
0.000443297
0.000443889
0.000444459
0.000445007
0.000445523
0.000445995
0.000446407
0.000446744
0.000446999
0.000447386
0.000447164
0.000446846
0.000446449
0.000445986
0.000445473
0.000444922
0.000444342
0.000443739
0.000443114
0.000442467
0.000441796
0.000441097
0.000440366
0.000439602
0.000438801
0.000437959
0.000437075
0.000436146
0.000435169
0.00043414
0.000433056
0.000431913
0.000430709
0.00042944
0.000428103
0.000426698
0.000425219
0.000423662
0.000422022
0.000420297
0.00041848
0.00041657
0.000414563
0.000412453
0.000410238
0.000407913
0.000405474
0.000402917
0.000400239
0.000397434
0.000394501
0.000391434
0.000388233
0.000384891
0.000381406
0.000377774
0.000373994
0.000370062
0.000365977
0.000361737
0.000357341
0.000352789
0.000348079
0.000343213
0.000338192
0.000333017
0.000327689
0.000322214
0.000316595
0.000310835
0.000304941
0.000298916
0.00029277
0.000286507
0.000280137
0.000273668
0.00026711
0.000260472
0.000253763
0.000246996
0.000240179
0.000233325
0.000226446
0.00021955
0.000212653
0.000205766
0.000198901
0.000192069
0.000185283
0.000178552
0.00017189
0.000165305
0.000158807
0.000152407
0.000146114
0.000139934
0.000133879
0.000127952
0.000122161
0.000116511
0.000111006
0.000105652
0.000100449
9.54023e-05
9.05122e-05
8.57804e-05
8.12078e-05
7.67944e-05
7.25404e-05
6.8444e-05
6.45046e-05
6.0719e-05
5.70876e-05
5.36046e-05
5.02706e-05
4.70802e-05
4.40335e-05
4.11237e-05
3.83488e-05
3.57039e-05
3.31853e-05
3.07908e-05
2.85128e-05
2.63525e-05
2.42995e-05
2.23552e-05
2.05146e-05
1.87723e-05
1.71301e-05
1.55758e-05
1.41117e-05
1.2736e-05
1.14372e-05
1.02209e-05
9.0822e-06
8.01251e-06
7.01687e-06
6.0901e-06
5.22532e-06
4.42939e-06
3.69637e-06
3.01528e-06
2.39685e-06
1.8413e-06
1.33233e-06
8.78411e-07
4.8228e-07
1.29276e-07
-1.83977e-07
-4.44602e-07
-6.56004e-07
-8.38553e-07
-9.92629e-07
-1.10581e-06
-1.1813e-06
-1.23813e-06
-1.27936e-06
-1.30537e-06
-1.30591e-06
-1.28101e-06
-1.24087e-06
-1.18484e-06
-1.10991e-06
-9.97505e-07
-8.44517e-07
-6.63227e-07
-4.5318e-07
-1.93873e-07
1.18416e-07
4.7064e-07
8.66136e-07
1.32015e-06
1.83009e-06
2.38663e-06
3.00603e-06
3.6883e-06
4.42255e-06
5.21952e-06
6.08519e-06
7.0125e-06
8.00813e-06
9.07839e-06
1.02177e-05
1.14344e-05
1.27335e-05
1.41101e-05
1.55759e-05
1.71313e-05
1.87736e-05
2.0516e-05
2.2357e-05
2.43017e-05
2.63556e-05
2.8517e-05
3.07962e-05
3.31917e-05
3.57111e-05
3.83571e-05
4.11327e-05
4.40436e-05
4.70912e-05
5.02808e-05
5.36138e-05
5.70958e-05
6.07272e-05
6.45122e-05
6.84506e-05
7.25468e-05
7.67999e-05
8.12122e-05
8.57838e-05
9.05147e-05
9.54052e-05
0.000100452
0.000105655
0.000111009
0.000116514
0.000122164
0.000127954
0.000133881
0.000139937
0.000146115
0.000152409
0.000158808
0.000165306
0.000171891
0.000178554
0.000185286
0.000192071
0.000198903
0.000205767
0.000212654
0.00021955
0.000226443
0.000233323
0.000240177
0.000246992
0.000253761
0.000260469
0.000267107
0.000273665
0.000280133
0.000286502
0.000292767
0.000298915
0.00030494
0.000310836
0.000316597
0.000322218
0.000327694
0.000333021
0.000338198
0.00034322
0.000348087
0.000352797
0.000357351
0.000361747
0.000365988
0.000370074
0.000374007
0.000377788
0.00038142
0.000384906
0.000388249
0.000391451
0.000394516
0.000397448
0.000400251
0.000402927
0.000405482
0.000407918
0.000410241
0.000412454
0.000414562
0.000416567
0.000418477
0.000420293
0.00042202
0.000423661
0.000425219
0.000426698
0.000428102
0.000429435
0.0004307
0.000431902
0.000433041
0.000434122
0.000435147
0.00043612
0.000437044
0.000437923
0.00043876
0.000439558
0.000440319
0.000441046
0.000441743
0.000442413
0.00044306
0.000443684
0.000444288
0.00044487
0.000445426
0.000445946
0.000446415
0.000446818
0.000447141
0.000447376
0.000447766
0.000447563
0.000447259
0.000446871
0.000446414
0.000445901
0.000445346
0.000444758
0.000444144
0.000443509
0.000442851
0.000442169
0.00044146
0.000440721
0.000439949
0.00043914
0.000438291
0.0004374
0.000436464
0.000435481
0.000434446
0.000433356
0.000432207
0.000430997
0.000429722
0.00042838
0.000426969
0.000425485
0.000423923
0.000422279
0.000420547
0.000418726
0.00041681
0.000414797
0.000412683
0.000410462
0.000408132
0.000405688
0.000403125
0.000400441
0.000397631
0.000394692
0.000391621
0.000388414
0.000385067
0.000381577
0.00037794
0.000374155
0.000370218
0.000366128
0.000361882
0.000357481
0.000352923
0.000348208
0.000343336
0.000338309
0.000333128
0.000327795
0.000322315
0.000316689
0.000310924
0.000305023
0.000298993
0.00029284
0.000286572
0.000280195
0.00027372
0.000267155
0.000260511
0.000253796
0.000247022
0.000240199
0.000233339
0.000226453
0.000219551
0.000212648
0.000205755
0.000198883
0.000192045
0.000185252
0.000178515
0.000171846
0.000165255
0.000158751
0.000152345
0.000146046
0.000139862
0.0001338
0.000127867
0.00012207
0.000116414
0.000110904
0.000105544
0.000100336
9.5284e-05
9.0388e-05
8.56512e-05
8.10736e-05
7.66546e-05
7.23962e-05
6.82945e-05
6.43504e-05
6.05603e-05
5.69238e-05
5.34368e-05
5.00981e-05
4.69036e-05
4.38529e-05
4.09391e-05
3.81601e-05
3.55117e-05
3.29898e-05
3.05916e-05
2.83109e-05
2.61476e-05
2.40923e-05
2.21458e-05
2.03028e-05
1.85588e-05
1.69142e-05
1.53585e-05
1.38932e-05
1.25165e-05
1.12178e-05
1.00017e-05
8.863e-06
7.79439e-06
6.79984e-06
5.87437e-06
5.0124e-06
4.2187e-06
3.48748e-06
2.81033e-06
2.19569e-06
1.64273e-06
1.13854e-06
6.89243e-07
2.95786e-07
-5.36212e-08
-3.61413e-07
-6.18816e-07
-8.29571e-07
-1.00954e-06
-1.15941e-06
-1.27086e-06
-1.34744e-06
-1.40414e-06
-1.444e-06
-1.46768e-06
-1.46827e-06
-1.44581e-06
-1.40717e-06
-1.35133e-06
-1.27536e-06
-1.16477e-06
-1.01617e-06
-8.3771e-07
-6.28594e-07
-3.72777e-07
-6.61836e-08
2.82253e-07
6.74951e-07
1.12437e-06
1.62965e-06
2.18379e-06
2.79966e-06
3.47828e-06
4.21109e-06
5.00619e-06
5.86933e-06
6.79574e-06
7.79075e-06
8.86031e-06
1e-05
1.12167e-05
1.25159e-05
1.38934e-05
1.53603e-05
1.6917e-05
1.85617e-05
2.03061e-05
2.21491e-05
2.40962e-05
2.61522e-05
2.83163e-05
3.05985e-05
3.29974e-05
3.55207e-05
3.81701e-05
4.09499e-05
4.38645e-05
4.69163e-05
5.01103e-05
5.34473e-05
5.69338e-05
6.05695e-05
6.4359e-05
6.83024e-05
7.24029e-05
7.66612e-05
8.10784e-05
8.56546e-05
9.03912e-05
9.52869e-05
0.000100339
0.000105547
0.000110907
0.000116417
0.000122073
0.00012787
0.000133803
0.000139864
0.000146049
0.000152348
0.000158753
0.000165257
0.000171848
0.000178518
0.000185255
0.000192047
0.000198885
0.000205756
0.000212648
0.000219551
0.000226451
0.000233336
0.000240197
0.000247019
0.000253793
0.000260508
0.000267152
0.000273716
0.00028019
0.000286566
0.000292836
0.000298991
0.000305022
0.000310925
0.000316692
0.000322318
0.0003278
0.000333134
0.000338316
0.000343343
0.000348216
0.000352932
0.000357491
0.000361893
0.000366139
0.000370231
0.000374169
0.000377956
0.000381593
0.000385084
0.000388432
0.000391639
0.00039471
0.000397647
0.000400454
0.000403136
0.000405695
0.000408137
0.000410464
0.000412682
0.000414794
0.000416804
0.000418719
0.00042054
0.000422273
0.000423919
0.000425482
0.000426967
0.000428376
0.000429714
0.000430985
0.000432191
0.000433336
0.000434422
0.000435453
0.000436432
0.000437361
0.000438245
0.000439089
0.000439894
0.000440663
0.000441398
0.000442105
0.000442786
0.000443444
0.00044408
0.000444694
0.000445286
0.000445848
0.000446369
0.000446834
0.000447227
0.000447537
0.000447755
0.000448149
0.000447961
0.00044767
0.000447291
0.000446839
0.000446328
0.00044577
0.000445176
0.000444554
0.000443909
0.000443241
0.000442549
0.00044183
0.000441082
0.000440301
0.000439484
0.000438627
0.000437729
0.000436786
0.000435797
0.000434756
0.000433659
0.000432504
0.000431288
0.000430007
0.000428659
0.000427243
0.000425754
0.000424186
0.000422536
0.0004208
0.000418973
0.000417053
0.000415034
0.000412914
0.000410688
0.000408353
0.000405903
0.000403335
0.000400645
0.00039783
0.000394885
0.000391809
0.000388597
0.000385245
0.000381749
0.000378108
0.000374317
0.000370375
0.000366279
0.000362028
0.000357621
0.000353058
0.000348337
0.00034346
0.000338428
0.000333241
0.000327902
0.000322415
0.000316785
0.000311013
0.000305106
0.000299069
0.000292911
0.000286636
0.000280253
0.000273772
0.000267201
0.000260549
0.000253829
0.000247048
0.000240219
0.000233352
0.00022646
0.000219552
0.000212642
0.000205742
0.000198864
0.000192019
0.00018522
0.000178476
0.000171802
0.000165205
0.000158694
0.000152283
0.000145978
0.000139787
0.000133719
0.000127781
0.000121978
0.000116316
0.0001108
0.000105435
0.000100221
9.51632e-05
9.02624e-05
8.55204e-05
8.09369e-05
7.65135e-05
7.22495e-05
6.81433e-05
6.41943e-05
6.03993e-05
5.67584e-05
5.32668e-05
4.99236e-05
4.67249e-05
4.36702e-05
4.07526e-05
3.79698e-05
3.53176e-05
3.27922e-05
3.03907e-05
2.81072e-05
2.59408e-05
2.38834e-05