TITLE: "QKFVS Viscous Code - NAL"
VARIABLES= "X", "Y", "Density", "Pressure", "x-velocity", "y-velocity", "Velocity Magnitude"
ZONE I= 160 J= 59 , DATAPACKING=BLOCK
1.00067
0.99977
0.998203
0.995902
0.992849
0.989041
0.984483
0.979179
0.973136
0.966364
0.958873
0.950674
0.941778
0.932201
0.921955
0.911058
0.899525
0.887375
0.874626
0.861297
0.847409
0.832984
0.818043
0.80261
0.786708
0.770361
0.753596
0.736437
0.718911
0.701045
0.682867
0.664404
0.645685
0.626739
0.607595
0.588282
0.56883
0.54927
0.529631
0.509943
0.490238
0.470544
0.450894
0.431316
0.411842
0.392501
0.373323
0.354338
0.335576
0.317064
0.298833
0.28091
0.263322
0.246098
0.229264
0.212846
0.196869
0.181358
0.166337
0.15183
0.137859
0.124445
0.11161
0.0993734
0.0877538
0.0767694
0.0664371
0.0567727
0.0477911
0.039506
0.0319298
0.025074
0.0189487
0.0135629
0.00892442
0.00504036
0.00191767
-0.000435863
-0.00201093
-0.0027978
-0.00279778
-0.00201089
-0.000435792
0.00191777
0.00504048
0.00892457
0.0135631
0.0189489
0.0250743
0.0319301
0.0395063
0.0477914
0.056773
0.0664374
0.0767698
0.0877542
0.0993738
0.111611
0.124446
0.137859
0.15183
0.166338
0.181358
0.196869
0.212846
0.229265
0.246099
0.263323
0.28091
0.298834
0.317065
0.335576
0.354339
0.373324
0.392502
0.411843
0.431317
0.450894
0.470545
0.490238
0.509944
0.529632
0.549271
0.568831
0.588283
0.607595
0.62674
0.645686
0.664405
0.682867
0.701046
0.718912
0.736437
0.753596
0.770362
0.786708
0.80261
0.818044
0.832985
0.84741
0.861298
0.874626
0.887376
0.899526
0.911059
0.921956
0.932201
0.941779
0.950674
0.958873
0.966365
0.973136
0.979179
0.984483
0.989041
0.992849
0.995902
0.998203
0.99977
1.00067
1.00328
1.00247
1.00091
0.998606
0.99556
0.991767
0.987228
0.981944
0.975921
0.969166
0.961688
0.953498
0.944607
0.935028
0.924776
0.913865
0.902312
0.890134
0.87735
0.86398
0.850043
0.83556
0.820555
0.805049
0.789067
0.772632
0.755771
0.738509
0.720872
0.702887
0.684582
0.665985
0.647125
0.628031
0.608731
0.589256
0.569635
0.549899
0.530079
0.510203
0.490305
0.470413
0.450559
0.430774
0.411087
0.391531
0.372134
0.352928
0.333942
0.315205
0.296747
0.278596
0.260782
0.243331
0.226272
0.20963
0.193432
0.177703
0.162468
0.147751
0.133575
0.119961
0.106933
0.0945085
0.0827086
0.0715514
0.0610542
0.0512333
0.042104
0.0336805
0.0259756
0.0190013
0.0127684
0.00728665
0.00256497
-0.00138829
-0.00456506
-0.00695728
-0.00855717
-0.00935837
-0.00935833
-0.00855705
-0.00695709
-0.00456479
-0.00138795
0.00256539
0.00728714
0.012769
0.019002
0.0259763
0.0336812
0.0421049
0.0512342
0.0610551
0.0715524
0.0827097
0.0945096
0.106934
0.119963
0.133576
0.147752
0.162469
0.177704
0.193433
0.209631
0.226273
0.243333
0.260784
0.278598
0.296749
0.315207
0.333943
0.35293
0.372136
0.391533
0.411089
0.430776
0.450561
0.470415
0.490307
0.510205
0.530081
0.549901
0.569637
0.589258
0.608733
0.628033
0.647127
0.665987
0.684584
0.702889
0.720873
0.738511
0.755773
0.772634
0.789069
0.805051
0.820556
0.835562
0.850044
0.863981
0.877352
0.890136
0.902313
0.913866
0.924777
0.935029
0.944608
0.953499
0.961689
0.969167
0.975922
0.981944
0.987228
0.991768
0.99556
0.998606
1.00091
1.00247
1.00328
1.00814
1.00736
1.00581
1.00351
1.00045
0.996643
0.992084
0.986778
0.980731
0.973947
0.966435
0.958205
0.949268
0.939636
0.929323
0.918343
0.906713
0.89445
0.881573
0.8681
0.854051
0.839448
0.824313
0.808669
0.792539
0.775948
0.758922
0.741485
0.723666
0.70549
0.686986
0.668182
0.649106
0.629789
0.610259
0.590547
0.570682
0.550696
0.530619
0.510483
0.490317
0.470154
0.450024
0.429959
0.409991
0.390149
0.370465
0.35097
0.331694
0.312667
0.293919
0.27548
0.257378
0.239643
0.222301
0.205381
0.188909
0.172911
0.157413
0.142438
0.128011
0.114155
0.100892
0.0882413
0.0762245
0.0648602
0.0541662
0.0441595
0.0348559
0.02627
0.0184155
0.0113048
0.00494944
-0.000639988
-0.00545378
-0.00948291
-0.012719
-0.0151543
-0.016782
-0.0175971
-0.017597
-0.0167818
-0.0151539
-0.0127185
-0.00948235
-0.00545309
-0.000639177
0.00495037
0.0113058
0.0184166
0.0262713
0.0348573
0.044161
0.0541678
0.0648619
0.0762263
0.0882432
0.100894
0.114157
0.128014
0.142441
0.157415
0.172914
0.188912
0.205384
0.222304
0.239646
0.257381
0.275483
0.293922
0.31267
0.331697
0.350973
0.370468
0.390152
0.409994
0.429963
0.450027
0.470157
0.49032
0.510486
0.530622
0.550699
0.570685
0.59055
0.610262
0.629792
0.649109
0.668185
0.686989
0.705493
0.723669
0.741488
0.758925
0.775951
0.792542
0.808672
0.824316
0.839451
0.854053
0.868102
0.881575
0.894453
0.906715
0.918345
0.929324
0.939638
0.94927
0.958207
0.966437
0.973948
0.980732
0.986779
0.992085
0.996643
1.00045
1.00351
1.00581
1.00736
1.00814
1.01521
1.01443
1.01288
1.01056
1.00748
1.00363
0.999024
0.993664
0.987555
0.980702
0.973113
0.964798
0.955766
0.946031
0.935605
0.924503
0.912741
0.900336
0.887306
0.873669
0.859447
0.84466
0.829331
0.813482
0.797137
0.780321
0.763059
0.745378
0.727303
0.708864
0.690087
0.671001
0.651635
0.63202
0.612185
0.59216
0.571976
0.551664
0.531256
0.510783
0.490276
0.469767
0.449289
0.428872
0.408549
0.388351
0.36831
0.348457
0.328824
0.309441
0.290339
0.271548
0.253098
0.235018
0.217336
0.200082
0.183281
0.166961
0.151149
0.135868
0.121145
0.107001
0.0934601
0.0805437
0.0682724
0.0566658
0.0457424
0.0355197
0.0260142
0.0172412
0.00921496
0.00194858
-0.00454575
-0.0102569
-0.0151745
-0.0192894
-0.0225929
-0.0250779
-0.0267381
-0.0275693
-0.0275693
-0.0267379
-0.0250774
-0.0225923
-0.0192886
-0.0151736
-0.0102557
-0.00454444
0.00195006
0.00921661
0.017243
0.0260162
0.0355218
0.0457446
0.0566682
0.068275
0.0805465
0.093463
0.107004
0.121148
0.135871
0.151152
0.166965
0.183284
0.200085
0.21734
0.235022
0.253102
0.271552
0.290344
0.309446
0.328828
0.348462
0.368314
0.388355
0.408553
0.428876
0.449293
0.469772
0.49028
0.510787
0.531261
0.551669
0.571981
0.592164
0.612189
0.632025
0.65164
0.671005
0.690091
0.708868
0.727307
0.745382
0.763063
0.780325
0.797141
0.813486
0.829335
0.844664
0.859451
0.873673
0.887309
0.900339
0.912744
0.924506
0.935608
0.946033
0.955768
0.9648
0.973115
0.980703
0.987556
0.993666
0.999025
1.00363
1.00748
1.01056
1.01288
1.01443
1.01521
1.02446
1.02367
1.0221
1.01975
1.01662
1.01271
1.00804
1.0026
0.996392
0.989433
0.981728
0.973284
0.964113
0.954227
0.943638
0.932361
0.920412
0.907808
0.894566
0.880706
0.866249
0.851214
0.835625
0.819504
0.802876
0.785765
0.768197
0.750199
0.731797
0.71302
0.693896
0.674454
0.654723
0.634734
0.614517
0.594103
0.573523
0.552809
0.531993
0.511106
0.490182
0.469253
0.448351
0.427508
0.406757
0.386131
0.365662
0.345382
0.325323
0.305516
0.285994
0.266786
0.247924
0.229438
0.211357
0.193709
0.176524
0.159829
0.14365
0.128013
0.112944
0.0984678
0.0846064
0.0713827
0.058818
0.0469327
0.035746
0.0252761
0.0155401
0.00655394
-0.00166748
-0.00911039
-0.0157621
-0.0216108
-0.0266461
-0.0308583
-0.0342392
-0.0367815
-0.0384796
-0.0393296
-0.0393295
-0.0384792
-0.0367809
-0.0342384
-0.0308573
-0.0266448
-0.0216093
-0.0157603
-0.00910846
-0.00166534
0.0065563
0.0155427
0.0252789
0.035749
0.0469358
0.0588213
0.0713862
0.0846101
0.0984717
0.112949
0.128017
0.143654
0.159833
0.176529
0.193714
0.211362
0.229443
0.24793
0.266792
0.285999
0.305522
0.325328
0.345387
0.365668
0.386137
0.406763
0.427514
0.448356
0.469259
0.490188
0.511112
0.531999
0.552815
0.573529
0.594108
0.614523
0.63474
0.654729
0.67446
0.693902
0.713026
0.731803
0.750204
0.768202
0.78577
0.802881
0.819509
0.835629
0.851218
0.866253
0.880711
0.89457
0.907812
0.920416
0.932365
0.943641
0.95423
0.964116
0.973287
0.98173
0.989436
0.996394
1.0026
1.00804
1.01272
1.01662
1.01975
1.0221
1.02367
1.02446
1.03588
1.03508
1.03348
1.03108
1.02789
1.0239
1.01913
1.01358
1.00725
1.00015
0.992294
0.983682
0.974327
0.964243
0.953442
0.941938
0.929748
0.916888
0.903377
0.889233
0.874477
0.85913
0.843216
0.826756
0.809776
0.7923
0.774355
0.755967
0.737165
0.717976
0.698429
0.678554
0.658381
0.637941
0.617264
0.596383
0.575329
0.554135
0.532833
0.511456
0.490037
0.46861
0.447208
0.425863
0.40461
0.383482
0.362511
0.341732
0.321176
0.300877
0.280866
0.261176
0.241837
0.222881
0.204339
0.186239
0.168611
0.151484
0.134885
0.118841
0.103378
0.0885204
0.0742934
0.0607197
0.0478215
0.0356198
0.0241346
0.0133848
0.00338825
-0.00583853
-0.01428
-0.0219218
-0.0287507
-0.0347546
-0.0399227
-0.0442453
-0.047714
-0.0503218
-0.0520635
-0.0529352
-0.052935
-0.052063
-0.0503211
-0.047713
-0.044244
-0.0399211
-0.0347528
-0.0287486
-0.0219194
-0.0142773
-0.0058356
0.00339144
0.0133883
0.0241383
0.0356237
0.0478257
0.0607241
0.074298
0.0885252
0.103383
0.118846
0.13489
0.15149
0.168617
0.186245
0.204345
0.222888
0.241844
0.261182
0.280873
0.300884
0.321183
0.341739
0.362519
0.383489
0.404617
0.42587
0.447215
0.468617
0.490045
0.511463
0.53284
0.554142
0.575336
0.59639
0.617271
0.637948
0.658388
0.678561
0.698436
0.717983
0.737172
0.755974
0.774361
0.792306
0.809782
0.826762
0.843221
0.859136
0.874482
0.889238
0.903382
0.916893
0.929753
0.941943
0.953446
0.964247
0.974331
0.983685
0.992297
1.00016
1.00726
1.01358
1.01914
1.02391
1.02789
1.03108
1.03348
1.03508
1.03588
1.04948
1.04866
1.04702
1.04457
1.0413
1.03722
1.03233
1.02664
1.02016
1.01289
1.00484
0.996015
0.986434
0.976106
0.965044
0.953262
0.940777
0.927605
0.913765
0.899276
0.88416
0.868436
0.85213
0.835263
0.817861
0.799949
0.781554
0.762703
0.743425
0.723748
0.703702
0.683316
0.662623
0.641653
0.620437
0.59901
0.577402
0.555648
0.53378
0.511834
0.489841
0.467838
0.445857
0.423933
0.402101
0.380394
0.358848
0.337495
0.31637
0.295506
0.274937
0.254695
0.234813
0.215322
0.196255
0.177641
0.159511
0.141894
0.124819
0.108314
0.0924049
0.0771183
0.062479
0.0485111
0.0352376
0.0226802
0.0108598
-0.000203984
-0.0104927
-0.0199891
-0.028677
-0.0365414
-0.0435688
-0.0497467
-0.0550638
-0.0595105
-0.0630784
-0.0657604
-0.0675514
-0.0684477
-0.0684475
-0.0675509
-0.0657595
-0.0630771
-0.059509
-0.0550619
-0.0497444
-0.0435662
-0.0365385
-0.0286737
-0.0199855
-0.0104889
-0.000199835
0.0108643
0.022685
0.0352426
0.0485164
0.0624846
0.0771241
0.092411
0.10832
0.124826
0.141901
0.159518
0.177648
0.196262
0.21533
0.234821
0.254703
0.274945
0.295514
0.316378
0.337503
0.358856
0.380403
0.402109
0.423942
0.445865
0.467846
0.48985
0.511842
0.533789
0.555657
0.577411
0.599018
0.620446
0.641661
0.662631
0.683325
0.70371
0.723756
0.743433
0.762711
0.781562
0.799956
0.817868
0.83527
0.852137
0.868443
0.884166
0.899283
0.913771
0.927611
0.940782
0.953267
0.965049
0.976111
0.986438
0.996019
1.00484
1.01289
1.02016
1.02664
1.03233
1.03722
1.0413
1.04457
1.04702
1.04866
1.04948
1.0653
1.06445
1.06277
1.06024
1.05688
1.05268
1.04766
1.04181
1.03514
1.02767
1.01939
1.01032
1.00047
0.98985
0.978478
0.966367
0.953533
0.939992
0.925765
0.91087
0.895329
0.879164
0.862397
0.845054
0.827159
0.808739
0.789821
0.770432
0.750601
0.730359
0.709734
0.688759
0.667465
0.645884
0.62405
0.601994
0.579751
0.557355
0.53484
0.512242
0.489594
0.466933
0.444293
0.421711
0.39922
0.376857
0.354657
0.332655
0.310886
0.289384
0.268184
0.24732
0.226825
0.206732
0.187074
0.167882
0.149188
0.131022
0.113413
0.0963911
0.079983
0.0642159
0.0491159
0.0347077
0.0210152
0.00806122
-0.00413279
-0.0155464
-0.0261604
-0.0359568
-0.0449189
-0.0530312
-0.0602795
-0.0666512
-0.0721347
-0.07672
-0.0803987
-0.0831639
-0.0850103
-0.0859342
-0.085934
-0.0850096
-0.0831629
-0.0803973
-0.0767182
-0.0721324
-0.0666486
-0.0602765
-0.0530277
-0.0449151
-0.0359526
-0.0261558
-0.0155415
-0.00412754
0.00806681
0.0210212
0.0347139
0.0491224
0.0642228
0.0799902
0.0963986
0.113421
0.13103
0.149196
0.167891
0.187083
0.206741
0.226834
0.247329
0.268193
0.289393
0.310895
0.332665
0.354667
0.376867
0.39923
0.421721
0.444304
0.466943
0.489605
0.512252
0.534851
0.557365
0.579761
0.602004
0.62406
0.645895
0.667475
0.688769
0.709744
0.730368
0.75061
0.770441
0.78983
0.808748
0.827168
0.845063
0.862405
0.879172
0.895337
0.910877
0.925772
0.939999
0.953539
0.966373
0.978484
0.989856
1.00047
1.01032
1.01939
1.02767
1.03515
1.04181
1.04766
1.05269
1.05688
1.06024
1.06277
1.06445
1.0653
1.08337
1.0825
1.08076
1.07815
1.07468
1.07035
1.06516
1.05913
1.05225
1.04453
1.03599
1.02663
1.01647
1.00552
0.993788
0.981295
0.968057
0.954091
0.939416
0.924053
0.908023
0.891349
0.874055
0.856165
0.837705
0.818702
0.799184
0.77918
0.758719
0.737831
0.716549
0.694903
0.672926
0.650652
0.628114
0.605347
0.582384
0.559263
0.536017
0.512682
0.489296
0.465894
0.442513
0.419188
0.395958
0.372858
0.349924
0.327194
0.304703
0.282487
0.260582
0.239022
0.217842
0.197077
0.176761
0.156925
0.137602
0.118825
0.100622
0.0830255
0.0660628
0.0497623
0.0341509
0.0192544
0.00509759
-0.00829592
-0.0209037
-0.0327046
-0.0436785
-0.053807
-0.0630725
-0.0714591
-0.0789522
-0.0855385
-0.0912064
-0.0959456
-0.0997475
-0.102605
-0.104513
-0.105468
-0.105468
-0.104512
-0.102604
-0.0997458
-0.0959435
-0.0912038
-0.0855355
-0.0789487
-0.0714552
-0.0630681
-0.0538021
-0.0436733
-0.0326989
-0.0208976
-0.00828943
0.00510447
0.0192616
0.0341585
0.0497703
0.0660711
0.0830341
0.100631
0.118834
0.137612
0.156935
0.176771
0.197088
0.217853
0.239033
0.260593
0.282498
0.304714
0.327206
0.349936
0.37287
0.39597
0.4192
0.442525
0.465906
0.489308
0.512694
0.536029
0.559275
0.582396
0.605359
0.628126
0.650664
0.672938
0.694914
0.71656
0.737842
0.75873
0.77919
0.799194
0.818712
0.837715
0.856174
0.874064
0.891358
0.908032
0.924061
0.939424
0.954098
0.968064
0.981302
0.993794
1.00552
1.01648
1.02664
1.03599
1.04454
1.05225
1.05913
1.06517
1.07035
1.07468
1.07815
1.08076
1.0825
1.08337
1.10374
1.10284
1.10104
1.09834
1.09475
1.09026
1.08489
1.07864
1.07152
1.06354
1.0547
1.04501
1.03449
1.02316
1.01102
0.998095
0.984398
0.969948
0.954765
0.93887
0.922286
0.905035
0.887142
0.868633
0.849534
0.829873
0.809678
0.78898
0.767808
0.746194
0.724171
0.70177
0.679027
0.655974
0.632647
0.609082
0.585313
0.561379
0.537315
0.513158
0.488947
0.464717
0.440509
0.416358
0.392303
0.368382
0.344633
0.321093
0.297799
0.27479
0.252101
0.22977
0.207832
0.186322
0.165275
0.144727
0.124709
0.105255
0.0863967
0.068165
0.0505901
0.0337009
0.0175253
0.00209036
-0.0125783
-0.0264561
-0.0395197
-0.0517471
-0.0631175
-0.0736115
-0.0832112
-0.0918999
-0.0996626
-0.106486
-0.112357
-0.117266
-0.121204
-0.124163
-0.126139
-0.127128
-0.127128
-0.126138
-0.124162
-0.121202
-0.117263
-0.112354
-0.106482
-0.0996586
-0.0918954
-0.0832062
-0.073606
-0.0631114
-0.0517405
-0.0395127
-0.0264486
-0.0125704
0.00209868
0.0175341
0.03371
0.0505996
0.068175
0.086407
0.105266
0.12472
0.144738
0.165287
0.186334
0.207844
0.229782
0.252114
0.274803
0.297812
0.321106
0.344646
0.368395
0.392316
0.416371
0.440522
0.464731
0.48896
0.513172
0.537329
0.561393
0.585327
0.609095
0.632661
0.655987
0.67904
0.701783
0.724184
0.746207
0.767821
0.788992
0.80969
0.829885
0.849545
0.868644
0.887153
0.905046
0.922296
0.93888
0.954774
0.969956
0.984406
0.998103
1.01103
1.02317
1.0345
1.04502
1.0547
1.06354
1.07153
1.07865
1.0849
1.09027
1.09475
1.09834
1.10104
1.10284
1.10374
1.12649
1.12555
1.12368
1.12088
1.11715
1.11249
1.10692
1.10043
1.09303
1.08474
1.07557
1.06551
1.0546
1.04283
1.03024
1.01682
1.00261
0.987617
0.971864
0.955373
0.938167
0.92027
0.901707
0.882504
0.86269
0.842293
0.821342
0.799868
0.777902
0.755478
0.732628
0.709387
0.685789
0.66187
0.637665
0.613213
0.588549
0.563712
0.53874
0.513672
0.488545
0.463399
0.438274
0.413209
0.388242
0.363413
0.338762
0.314328
0.290149
0.266264
0.242712
0.219529
0.196755
0.174424
0.152575
0.131241
0.110459
0.090261
0.0706816
0.0517525
0.033505
0.0159693
-0.000825497
-0.0168514
-0.0320816
-0.0464905
-0.060054
-0.072749
-0.084554
-0.0954489
-0.105415
-0.114435
-0.122493
-0.129576
-0.13567
-0.140765
-0.144853
-0.147924
-0.149975
-0.151001
-0.151001
-0.149974
-0.147923
-0.14485
-0.140763
-0.135667
-0.129572
-0.122489
-0.11443
-0.105409
-0.0954426
-0.0845472
-0.0727416
-0.060046
-0.0464821
-0.0320726
-0.0168419
-0.00081557
0.0159797
0.0335158
0.0517638
0.0706933
0.0902731
0.110471
0.131254
0.152588
0.174438
0.196769
0.219544
0.242726
0.266279
0.290164
0.314343
0.338777
0.363429
0.388257
0.413224
0.43829
0.463415
0.488561
0.513687
0.538756
0.563728
0.588565
0.613228
0.637681
0.661885
0.685804
0.709402
0.732643
0.755492
0.777916
0.799882
0.821355
0.842306
0.862703
0.882517
0.901719
0.920282
0.938179
0.955384
0.971875
0.987627
1.00262
1.01683
1.03025
1.04284
1.05461
1.06552
1.07557
1.08475
1.09304
1.10043
1.10692
1.1125
1.11715
1.12088
1.12368
1.12555
1.12649
1.15168
1.15071
1.14876
1.14584
1.14196
1.13711
1.1313
1.12455
1.11685
1.10822
1.09867
1.08821
1.07685
1.06461
1.0515
1.03755
1.02276
1.00716
0.990775
0.973621
0.955723
0.937108
0.9178
0.897828
0.87722
0.856006
0.834216
0.811883
0.789039
0.765717
0.741953
0.717781
0.693238
0.668362
0.643188
0.617756
0.592104
0.566272
0.540299
0.514225
0.48809
0.461936
0.435802
0.409729
0.38376
0.357934
0.332292
0.306875
0.281724
0.256878
0.232377
0.208262
0.18457
0.16134
0.138611
0.116417
0.0947973
0.0737857
0.053417
0.0337248
0.0147418
-0.00350078
-0.0209725
-0.0376441
-0.0534879
-0.0684771
-0.0825866
-0.0957924
-0.108072
-0.119405
-0.129771
-0.139153
-0.147534
-0.1549
-0.161239
-0.166538
-0.170788
-0.173982
-0.176115
-0.177182
-0.177182
-0.176114
-0.173981
-0.170786
-0.166534
-0.161235
-0.154896
-0.147529
-0.139147
-0.129765
-0.119398
-0.108064
-0.0957841
-0.0825777
-0.0684676
-0.0534778
-0.0376335
-0.0209613
-0.00348907
0.014754
0.0337375
0.0534302
0.0737993
0.0948113
0.116432
0.138625
0.161356
0.184586
0.208278
0.232394
0.256894
0.28174
0.306892
0.332309
0.357951
0.383777
0.409747
0.435819
0.461953
0.488108
0.514242
0.540316
0.56629
0.592122
0.617773
0.643205
0.668379
0.693255
0.717798
0.741969
0.765733
0.789054
0.811899
0.834232
0.856021
0.877235
0.897842
0.917814
0.937121
0.955736
0.973633
0.990786
1.00717
1.02277
1.03756
1.05151
1.06462
1.07686
1.08822
1.09868
1.10823
1.11686
1.12455
1.13131
1.13711
1.14196
1.14584
1.14876
1.15071
1.15168
1.1794
1.17838
1.17635
1.17331
1.16925
1.16419
1.15813
1.15109
1.14306
1.13405
1.12409
1.11317
1.10133
1.08856
1.07489
1.06033
1.04491
1.02865
1.01156
0.993676
0.975017
0.955609
0.93548
0.91466
0.893177
0.871063
0.848349
0.82507
0.801258
0.776949
0.752179
0.726984
0.701403
0.675474
0.649236
0.622729
0.595992
0.569068
0.541997
0.514821
0.487581
0.460321
0.433082
0.405908
0.378841
0.351923
0.325197
0.298706
0.272491
0.246595
0.22106
0.195925
0.171232
0.14702
0.12333
0.100199
0.0776655
0.0557662
0.0345371
0.0140133
-0.00577128
-0.0247839
-0.0429929
-0.0603679
-0.0768797
-0.0925008
-0.107205
-0.120967
-0.133763
-0.145572
-0.156374
-0.16615
-0.174883
-0.182558
-0.189162
-0.194682
-0.199111
-0.202439
-0.20466
-0.205772
-0.205772
-0.204659
-0.202437
-0.199108
-0.194679
-0.189157
-0.182553
-0.174877
-0.166143
-0.156367
-0.145564
-0.133754
-0.120957
-0.107195
-0.0924902
-0.0768685
-0.060356
-0.0429804
-0.0247708
-0.00575763
0.0140275
0.0345518
0.0557814
0.0776812
0.100215
0.123346
0.147037
0.171249
0.195943
0.221078
0.246614
0.27251
0.298725
0.325216
0.351942
0.37886
0.405928
0.433102
0.460341
0.487601
0.51484
0.542017
0.569088
0.596012
0.622748
0.649255
0.675493
0.701422
0.727003
0.752197
0.776967
0.801276
0.825087
0.848366
0.87108
0.893193
0.914676
0.935496
0.955624
0.975031
0.99369
1.01158
1.02866
1.04493
1.06034
1.0749
1.08857
1.10134
1.11318
1.1241
1.13406
1.14306
1.15109
1.15814
1.1642
1.16925
1.17331
1.17635
1.17838
1.1794
1.20975
1.20868
1.20656
1.20337
1.19913
1.19384
1.18751
1.18014
1.17174
1.16233
1.15191
1.1405
1.12811
1.11477
1.10048
1.08527
1.06915
1.05216
1.0343
1.01561
0.996116
0.97584
0.954811
0.93306
0.910619
0.887518
0.863793
0.839476
0.814605
0.789215
0.763344
0.737031
0.710314
0.683234
0.655832
0.62815
0.600229
0.572111
0.543841
0.515461
0.487016
0.45855
0.430107
0.40173
0.373466
0.345359
0.317452
0.289791
0.262418
0.235379
0.208716
0.182472
0.15669
0.13141
0.106675
0.0825248
0.0589983
0.0361343
0.0139703
-0.00745699
-0.0281123
-0.0479612
-0.0669709
-0.0851095
-0.102347
-0.118654
-0.134003
-0.148368
-0.161725
-0.174052
-0.185327
-0.19553
-0.204645
-0.212655
-0.219547
-0.225309
-0.22993
-0.233403
-0.235722
-0.236882
-0.236881
-0.23572
-0.233401
-0.229927
-0.225305
-0.219542
-0.212649
-0.204638
-0.195523
-0.185319
-0.174043
-0.161716
-0.148358
-0.133992
-0.118642
-0.102334
-0.0850963
-0.066957
-0.0479467
-0.0280971
-0.0074412
0.0139867
0.0361512
0.0590158
0.0825428
0.106694
0.131429
0.156709
0.182492
0.208736
0.2354
0.262439
0.289812
0.317473
0.34538
0.373488
0.401752
0.430128
0.458572
0.487038
0.515483
0.543863
0.572133
0.60025
0.628171
0.655854
0.683256
0.710335
0.737051
0.763364
0.789235
0.814625
0.839496
0.863812
0.887537
0.910637
0.933078
0.954828
0.975856
0.996132
1.01563
1.03432
1.05217
1.06917
1.08528
1.10049
1.11478
1.12812
1.14051
1.15192
1.16233
1.17175
1.18014
1.18751
1.19385
1.19914
1.20338
1.20656
1.20868
1.20975
1.24283
1.24171
1.23948
1.23615
1.2317
1.22616
1.21952
1.2118
1.203
1.19314
1.18223
1.17028
1.15731
1.14333
1.12837
1.11244
1.09556
1.07777
1.05907
1.03951
1.0191
0.997874
0.975863
0.953097
0.929609
0.905432
0.880603
0.855156
0.829129
0.802561
0.77549
0.747957
0.720004
0.691671
0.663002
0.63404
0.604829
0.575413
0.545839
0.51615
0.486394
0.456617
0.426863
0.397181
0.367617
0.338217
0.309028
0.280096
0.251467
0.223187
0.195301
0.167853
0.140889
0.114452
0.0885842
0.0633283
0.0387254
0.0148158
-0.0083612
-0.0307674
-0.0523659
-0.0731208
-0.0929975
-0.111963
-0.129986
-0.147035
-0.163083
-0.178102
-0.192066
-0.204953
-0.216739
-0.227406
-0.236934
-0.245307
-0.252511
-0.258534
-0.263365
-0.266995
-0.269418
-0.270631
-0.27063
-0.269417
-0.266992
-0.263361
-0.25853
-0.252506
-0.245301
-0.236927
-0.227398
-0.216731
-0.204943
-0.192056
-0.17809
-0.163071
-0.147022
-0.129972
-0.111948
-0.0929822
-0.0731046
-0.0523491
-0.03075
-0.00834307
0.0148345
0.0387447
0.0633482
0.0886046
0.114473
0.140911
0.167875
0.195323
0.223209
0.25149
0.280119
0.309052
0.338241
0.367641
0.397206
0.426888
0.456641
0.486419
0.516175
0.545863
0.575437
0.604853
0.634063
0.663025
0.691694
0.720027
0.74798
0.775513
0.802583
0.829151
0.855177
0.880624
0.905453
0.929629
0.953116
0.975882
0.997892
1.01912
1.03953
1.05909
1.07778
1.09558
1.11245
1.12838
1.14334
1.15732
1.17029
1.18224
1.19315
1.20301
1.21181
1.21953
1.22617
1.23171
1.23615
1.23949
1.24171
1.24283
1.27876
1.27759
1.27525
1.27175
1.26708
1.26126
1.2543
1.24619
1.23696
1.22661
1.21516
1.20262
1.18901
1.17435
1.15865
1.14194
1.12424
1.10558
1.08597
1.06545
1.04405
1.02179
0.998712
0.974842
0.950217
0.924871
0.898841
0.872166
0.844884
0.817036
0.788662
0.759805
0.730508
0.700815
0.670771
0.64042
0.60981
0.578987
0.547998
0.51689
0.485713
0.454514
0.423341
0.392244
0.361272
0.330472
0.299894
0.269586
0.239597
0.209973
0.180763
0.152014
0.123771
0.0960812
0.0689885
0.0425372
0.0167704
-0.00826954
-0.0325417
-0.056006
-0.0786238
-0.100358
-0.121172
-0.141031
-0.159902
-0.177754
-0.194556
-0.210281
-0.224901
-0.238393
-0.250732
-0.261899
-0.271873
-0.280639
-0.28818
-0.294485
-0.299541
-0.303341
-0.305878
-0.307147
-0.307147
-0.305877
-0.303339
-0.299538
-0.29448
-0.288175
-0.280632
-0.271866
-0.26189
-0.250722
-0.238382
-0.22489
-0.210268
-0.194543
-0.177739
-0.159887
-0.141014
-0.121155
-0.10034
-0.0786053
-0.0559867
-0.0325217
-0.00824888
0.0167917
0.0425591
0.069011
0.0961043
0.123795
0.152038
0.180788
0.209998
0.239622
0.269612
0.29992
0.330498
0.361298
0.392271
0.423368
0.45454
0.48574
0.516917
0.548024
0.579013
0.609836
0.640447
0.670797
0.700841
0.730534
0.759831
0.788687
0.81706
0.844908
0.87219
0.898865
0.924893
0.950239
0.974864
0.998733
1.02181
1.04407
1.06547
1.08599
1.10559
1.12426
1.14196
1.15867
1.17436
1.18902
1.20263
1.21517
1.22662
1.23697
1.2462
1.2543
1.26127
1.26709
1.27175
1.27525
1.27759
1.27876
1.31767
1.31644
1.31398
1.3103
1.30539
1.29928
1.29195
1.28344
1.27373
1.26286
1.25082
1.23764
1.22334
1.20793
1.19144
1.17388
1.15529
1.13568
1.11509
1.09354
1.07106
1.04768
1.02344
0.998377
0.972518
0.945905
0.918576
0.89057
0.861928
0.832693
0.802909
0.772618
0.741867
0.710701
0.679168
0.647316
0.615192
0.582845
0.550326
0.517684
0.48497
0.452234
0.419527
0.386901
0.354407
0.322095
0.290016
0.258222
0.226763
0.195689
0.16505
0.134895
0.105272
0.0762296
0.0478148
0.0200735
-0.00694902
-0.0332086
-0.0586621
-0.0832678
-0.106985
-0.129775
-0.151599
-0.172422
-0.192208
-0.210925
-0.228541
-0.245027
-0.260355
-0.274498
-0.287434
-0.29914
-0.309596
-0.318784
-0.326689
-0.333298
-0.338598
-0.342581
-0.34524
-0.34657
-0.34657
-0.345238
-0.342578
-0.338594
-0.333293
-0.326683
-0.318777
-0.309587
-0.29913
-0.287423
-0.274486
-0.260342
-0.245013
-0.228526
-0.210909
-0.192191
-0.172404
-0.15158
-0.129755
-0.106965
-0.0832466
-0.0586402
-0.0331859
-0.00692562
0.0200976
0.0478395
0.076255
0.105298
0.134921
0.165077
0.195716
0.226791
0.25825
0.290044
0.322123
0.354436
0.38693
0.419557
0.452263
0.484999
0.517714
0.550355
0.582874
0.615221
0.647345
0.679197
0.71073
0.741895
0.772646
0.802936
0.832721
0.861955
0.890596
0.918601
0.94593
0.972543
0.9984
1.02347
1.0477
1.07108
1.09356
1.11511
1.1357
1.15531
1.1739
1.19146
1.20795
1.22336
1.23766
1.25083
1.26287
1.27374
1.28344
1.29196
1.29928
1.3054
1.3103
1.31398
1.31644
1.31767
1.3597
1.3584
1.35581
1.35194
1.34678
1.34034
1.33263
1.32366
1.31345
1.302
1.28934
1.27547
1.26042
1.24421
1.22686
1.20838
1.18882
1.1682
1.14653
1.12386
1.10022
1.07564
1.05015
1.02379
0.996596
0.968613
0.939879
0.910435
0.880324
0.849592
0.818283
0.786444
0.754122
0.721367
0.688226
0.654752
0.620994
0.587003
0.552833
0.518535
0.484163
0.449769
0.415408
0.381132
0.346996
0.313053
0.279357
0.245961
0.212918
0.180281
0.148101
0.116431
0.0853219
0.0548229
0.0249838
-0.00414696
-0.0325219
-0.0600949
-0.0868206
-0.112655
-0.137556
-0.161483
-0.184395
-0.206255
-0.227026
-0.246674
-0.265166
-0.282471
-0.29856
-0.313406
-0.326983
-0.339269
-0.350244
-0.359887
-0.368184
-0.375119
-0.380682
-0.384862
-0.387653
-0.389049
-0.389048
-0.387651
-0.384859
-0.380678
-0.375114
-0.368177
-0.359879
-0.350234
-0.339259
-0.326972
-0.313393
-0.298546
-0.282456
-0.26515
-0.246657
-0.227008
-0.206235
-0.184375
-0.161461
-0.137534
-0.112632
-0.0867966
-0.06007
-0.0324963
-0.00412062
0.0250108
0.0548506
0.0853502
0.11646
0.148131
0.180311
0.212949
0.245992
0.279388
0.313085
0.347028
0.381164
0.41544
0.449801
0.484195
0.518567
0.552865
0.587035
0.621026
0.654784
0.688258
0.721398
0.754153
0.786474
0.818313
0.849622
0.880354
0.910463
0.939907
0.96864
0.996622
1.02381
1.05017
1.07566
1.10024
1.12388
1.14655
1.16822
1.18884
1.2084
1.22687
1.24423
1.26044
1.27549
1.28935
1.30202
1.31346
1.32367
1.33264
1.34035
1.34678
1.35194
1.35582
1.3584
1.3597
1.405
1.40364
1.40091
1.39682
1.39138
1.3846
1.37648
1.36703
1.35626
1.3442
1.33086
1.31624
1.30039
1.28331
1.26503
1.24557
1.22496
1.20324
1.18042
1.15654
1.13165
1.10576
1.07892
1.05116
1.02254
0.993078
0.962829
0.931835
0.900141
0.867794
0.834842
0.801334
0.767319
0.732851
0.697979
0.662757
0.627238
0.591477
0.555528
0.519447
0.483289
0.44711
0.410967
0.374916
0.339013
0.303315
0.267878
0.232758
0.198011
0.163692
0.129855
0.0965556
0.0638466
0.0317808
0.000410098
-0.0302148
-0.0600441
-0.0890292
-0.117123
-0.144279
-0.170452
-0.195601
-0.219682
-0.242657
-0.264487
-0.285136
-0.304569
-0.322755
-0.339662
-0.355262
-0.369529
-0.382439
-0.39397
-0.404103
-0.412821
-0.420108
-0.425952
-0.430344
-0.433276
-0.434743
-0.434742
-0.433274
-0.43034
-0.425947
-0.420101
-0.412813
-0.404094
-0.39396
-0.382428
-0.369516
-0.355248
-0.339647
-0.322738
-0.304552
-0.285117
-0.264467
-0.242636
-0.21966
-0.195577
-0.170428
-0.144253
-0.117097
-0.0890021
-0.0600162
-0.0301861
0.000439592
0.0318111
0.0638775
0.0965871
0.129887
0.163724
0.198044
0.232792
0.267912
0.30335
0.339048
0.374951
0.411002
0.447146
0.483324
0.519482
0.555563
0.591512
0.627273
0.662791
0.698013
0.732885
0.767353
0.801367
0.834875
0.867826
0.900173
0.931866
0.96286
0.993108
1.02257
1.05119
1.07895
1.10578
1.13167
1.15657
1.18044
1.20326
1.22498
1.24559
1.26504
1.28333
1.3004
1.31626
1.33087
1.34421
1.35628
1.36704
1.37648
1.38461
1.39139
1.39683
1.40091
1.40364
1.405
1.45375
1.45231
1.44943
1.44512
1.43938
1.43222
1.42365
1.41368
1.40233
1.3896
1.37552
1.36011
1.34339
1.32537
1.30609
1.28557
1.26384
1.24093
1.21687
1.1917
1.16545
1.13816
1.10987
1.08061
1.05044
1.01939
0.987512
0.954849
0.921451
0.887367
0.852647
0.817343
0.781508
0.745196
0.708461
0.67136
0.633948
0.596283
0.558421
0.520423
0.482345
0.444248
0.40619
0.36823
0.330429
0.292844
0.255536
0.218564
0.181985
0.145859
0.110243
0.0751928
0.040766
0.00701757
-0.0259981
-0.0582275
-0.0896185
-0.12012
-0.149682
-0.178256
-0.205796
-0.232256
-0.257593
-0.281765
-0.304732
-0.326455
-0.346899
-0.366029
-0.383814
-0.400224
-0.415231
-0.428811
-0.44094
-0.451598
-0.460767
-0.468431
-0.474578
-0.479198
-0.482281
-0.483824
-0.483823
-0.482279
-0.479194
-0.474573
-0.468425
-0.460759
-0.451588
-0.440929
-0.428799
-0.415218
-0.400209
-0.383798
-0.366011
-0.346879
-0.326434
-0.30471
-0.281742
-0.257569
-0.232231
-0.20577
-0.178229
-0.149653
-0.12009
-0.0895881
-0.0581963
-0.025966
0.00705043
0.0407996
0.0752271
0.110278
0.145895
0.182021
0.2186
0.255573
0.292881
0.330466
0.368268
0.406228
0.444286
0.482384
0.520461
0.55846
0.596321
0.633986
0.671398
0.708499
0.745233
0.781545
0.817379
0.852682
0.887402
0.921485
0.954883
0.987545
1.01942
1.05047
1.08064
1.1099
1.13819
1.16548
1.19173
1.2169
1.24096
1.26386
1.28559
1.30611
1.32539
1.34341
1.36013
1.37554
1.38962
1.40234
1.41369
1.42366
1.43223
1.43938
1.44512
1.44943
1.45231
1.45375
1.50611
1.50459
1.50155
1.497
1.49093
1.48337
1.47432
1.4638
1.45181
1.43837
1.42351
1.40723
1.38958
1.37056
1.3502
1.32854
1.3056
1.28142
1.25603
1.22946
1.20176
1.17296
1.14311
1.11224
1.08041
1.04765
1.01402
0.979563
0.944333
0.908383
0.871764
0.834531
0.79674
0.758449
0.719714
0.680594
0.641149
0.601439
0.561524
0.521467
0.481329
0.441171
0.401057
0.361049
0.32121
0.281601
0.242286
0.203326
0.164782
0.126717
0.0891911
0.0522636
0.015994
-0.0195594
-0.0543394
-0.0882898
-0.121356
-0.153483
-0.18462
-0.214716
-0.243721
-0.271587
-0.29827
-0.323725
-0.34791
-0.370785
-0.392312
-0.412456
-0.431183
-0.448461
-0.464262
-0.478559
-0.491329
-0.50255
-0.512203
-0.520272
-0.526744