TITLE: "QKFVS Viscous Code - NAL"
VARIABLES= "X", "Y", "Density", "Pressure", "x-velocity", "y-velocity", "Velocity Magnitude"
ZONE I=320 J= 160 , DATAPACKING=BLOCK
1.00898
1.00797
1.00689
1.00575
1.00455
1.0033
1.00199
1.00062
0.999188
0.99769
0.996123
0.994484
0.992771
0.990978
0.989104
0.987143
0.985093
0.98295
0.980708
0.978365
0.975915
0.973355
0.970681
0.967887
0.964968
0.96192
0.958739
0.955418
0.951953
0.94834
0.944572
0.940644
0.936551
0.932288
0.927849
0.923228
0.918422
0.913424
0.908228
0.90283
0.897225
0.891407
0.885373
0.879116
0.872633
0.86592
0.858973
0.851787
0.844362
0.836692
0.828776
0.820612
0.812199
0.803536
0.794622
0.785458
0.776044
0.766383
0.756477
0.746329
0.735942
0.725322
0.714473
0.703402
0.692117
0.680624
0.668933
0.657052
0.644994
0.632766
0.620384
0.607856
0.595199
0.582423
0.569545
0.556578
0.543539
0.53044
0.517301
0.504133
0.490955
0.477783
0.464633
0.45152
0.438461
0.425471
0.412565
0.399758
0.387064
0.374498
0.362072
0.349799
0.337691
0.325761
0.314017
0.302471
0.29113
0.280004
0.269101
0.258425
0.247984
0.237782
0.227825
0.218114
0.208653
0.199446
0.190491
0.181792
0.173345
0.165155
0.157216
0.149529
0.142091
0.1349
0.127952
0.121244
0.114776
0.108538
0.102532
0.0967478
0.0911839
0.0858374
0.0806974
0.0757685
0.0710342
0.0664952
0.0621558
0.0579919
0.0540123
0.0502106
0.0465717
0.0431055
0.0397989
0.0366418
0.0336474
0.0307956
0.02808
0.0255179
0.0230867
0.0207768
0.018614
0.0165761
0.0146414
0.0128508
0.0111889
0.00960479
0.00816736
0.00687555
0.00563983
0.00454487
0.00361174
0.00273735
0.00196961
0.00137191
0.000867356
0.000383675
6.67104e-05
-8.73589e-05
-0.000233554
-0.000374227
-0.000374227
-0.000233554
-8.73589e-05
6.67104e-05
0.000383675
0.000867356
0.00137191
0.00196961
0.00273735
0.00361174
0.00454487
0.00563983
0.00687555
0.00816736
0.00960479
0.0111889
0.0128508
0.0146414
0.0165761
0.018614
0.0207768
0.0230867
0.0255179
0.02808
0.0307956
0.0336474
0.0366418
0.0397989
0.0431055
0.0465717
0.0502106
0.0540123
0.0579919
0.0621558
0.0664952
0.0710342
0.0757685
0.0806974
0.0858374
0.0911839
0.0967478
0.102532
0.108538
0.114776
0.121244
0.127952
0.1349
0.142091
0.149529
0.157216
0.165155
0.173345
0.181792
0.190491
0.199446
0.208653
0.218114
0.227825
0.237782
0.247984
0.258425
0.269101
0.280004
0.29113
0.302471
0.314017
0.325761
0.337691
0.349799
0.362072
0.374498
0.387064
0.399758
0.412565
0.425471
0.438461
0.45152
0.464633
0.477783
0.490955
0.504133
0.517301
0.53044
0.543539
0.556578
0.569545
0.582423
0.595199
0.607856
0.620384
0.632766
0.644994
0.657052
0.668933
0.680624
0.692117
0.703402
0.714473
0.725322
0.735942
0.746329
0.756477
0.766383
0.776044
0.785458
0.794622
0.803536
0.812199
0.820612
0.828776
0.836692
0.844362
0.851787
0.858973
0.86592
0.872633
0.879116
0.885373
0.891407
0.897225
0.90283
0.908228
0.913424
0.918422
0.923228
0.927849
0.932288
0.936551
0.940644
0.944572
0.94834
0.951953
0.955418
0.958739
0.96192
0.964968
0.967887
0.970681
0.973355
0.975915
0.978365
0.980708
0.98295
0.985093
0.987143
0.989104
0.990978
0.992771
0.994484
0.996123
0.99769
0.999188
1.00062
1.00199
1.0033
1.00455
1.00575
1.00689
1.00797
1.00898
1.01001
1.00901
1.00791
1.00673
1.00548
1.00418
1.00282
1.0014
0.999928
0.998391
0.996788
0.995116
0.993373
0.991553
0.989654
0.987671
0.985601
0.983439
0.981181
0.978822
0.976358
0.973785
0.971098
0.968293
0.965364
0.962307
0.959116
0.955786
0.952313
0.948692
0.944917
0.940982
0.936883
0.932614
0.928169
0.923544
0.918732
0.913728
0.908528
0.903124
0.897513
0.891691
0.885651
0.879389
0.872901
0.866183
0.85923
0.852039
0.844608
0.836932
0.829011
0.820842
0.812423
0.803754
0.794834
0.785664
0.776245
0.766578
0.756666
0.746512
0.736118
0.725492
0.714638
0.703561
0.692268
0.680769
0.669072
0.657185
0.645119
0.632886
0.620496
0.607962
0.595298
0.582515
0.569631
0.556656
0.54361
0.530504
0.517357
0.504181
0.490996
0.477816
0.464659
0.451537
0.43847
0.425471
0.412556
0.399741
0.387038
0.374463
0.362027
0.349746
0.337628
0.325688
0.313934
0.302378
0.291027
0.279891
0.268976
0.25829
0.247837
0.237626
0.227657
0.217936
0.208464
0.199246
0.190279
0.18157
0.173111
0.164911
0.15696
0.149264
0.141815
0.134613
0.127655
0.120935
0.114458
0.108208
0.102192
0.0963962
0.0908196
0.0854629
0.0803102
0.0753706
0.0706258
0.066072
0.0617227
0.057547
0.0535534
0.0497413
0.0460887
0.0426086
0.0392909
0.0361191
0.0331108
0.0302476
0.0275162
0.0249388
0.0224955
0.0201698
0.0179907
0.0159409
0.0139915
0.0121831
0.0105096
0.00891385
0.00745865
0.00615601
0.00491346
0.00380494
0.00286161
0.00198416
0.0012118
0.000606622
9.88451e-05
-0.000379383
-0.000699749
-0.000861476
-0.00100673
-0.00113901
-0.00113901
-0.00100673
-0.000861476
-0.000699749
-0.000379383
9.88451e-05
0.000606622
0.0012118
0.00198416
0.00286161
0.00380494
0.00491346
0.00615601
0.00745865
0.00891385
0.0105096
0.0121831
0.0139915
0.0159409
0.0179907
0.0201698
0.0224955
0.0249388
0.0275162
0.0302476
0.0331108
0.0361191
0.0392909
0.0426086
0.0460887
0.0497413
0.0535534
0.057547
0.0617227
0.066072
0.0706258
0.0753706
0.0803102
0.0854629
0.0908196
0.0963962
0.102192
0.108208
0.114458
0.120935
0.127655
0.134613
0.141815
0.149264
0.15696
0.164911
0.173111
0.18157
0.190279
0.199246
0.208464
0.217936
0.227657
0.237626
0.247837
0.25829
0.268976
0.279891
0.291027
0.302378
0.313934
0.325688
0.337628
0.349746
0.362027
0.374463
0.387038
0.399741
0.412556
0.425471
0.43847
0.451537
0.464659
0.477816
0.490996
0.504181
0.517357
0.530504
0.54361
0.556656
0.569631
0.582515
0.595298
0.607962
0.620496
0.632886
0.645119
0.657185
0.669072
0.680769
0.692268
0.703561
0.714638
0.725492
0.736118
0.746512
0.756666
0.766578
0.776245
0.785664
0.794834
0.803754
0.812423
0.820842
0.829011
0.836932
0.844608
0.852039
0.85923
0.866183
0.872901
0.879389
0.885651
0.891691
0.897513
0.903124
0.908528
0.913728
0.918732
0.923544
0.928169
0.932614
0.936883
0.940982
0.944917
0.948692
0.952313
0.955786
0.959116
0.962307
0.965364
0.968293
0.971098
0.973785
0.976358
0.978822
0.981181
0.983439
0.985601
0.987671
0.989654
0.991553
0.993373
0.995116
0.996788
0.998391
0.999928
1.0014
1.00282
1.00418
1.00548
1.00673
1.00791
1.00901
1.01001
1.01106
1.01012
1.00902
1.00782
1.00652
1.00517
1.00376
1.0023
1.00078
0.999202
0.997565
0.995863
0.994091
0.992247
0.990326
0.988323
0.986235
0.984056
0.981783
0.97941
0.976932
0.974346
0.971648
0.968831
0.965892
0.962825
0.959624
0.956285
0.952803
0.949172
0.945388
0.941445
0.937338
0.933063
0.92861
0.923978
0.919158
0.914147
0.90894
0.903529
0.89791
0.89208
0.886032
0.879763
0.873267
0.86654
0.859579
0.85238
0.84494
0.837256
0.829327
0.821148
0.812721
0.804043
0.795114
0.785935
0.776506
0.76683
0.756908
0.746745
0.736342
0.725706
0.714842
0.703756
0.692452
0.680944
0.669236
0.657339
0.645263
0.63302
0.620621
0.608077
0.595402
0.58261
0.569715
0.556731
0.543674
0.530557
0.517399
0.504212
0.491017
0.477826
0.464657
0.451524
0.438445
0.425435
0.412508
0.399681
0.386965
0.374379
0.36193
0.349636
0.337505
0.325553
0.313786
0.302218
0.290853
0.279704
0.268776
0.258077
0.247611
0.237386
0.227404
0.217671
0.208186
0.198956
0.189976
0.181255
0.172783
0.164572
0.156608
0.148902
0.14144
0.134228
0.127259
0.120527
0.114039
0.107777
0.10175
0.095944
0.0903562
0.0849896
0.0798261
0.074877
0.0701225
0.0655579
0.061199
0.0570135
0.0530103
0.0491894
0.0455274
0.0420384
0.0387122
0.0355315
0.0325148
0.0296437
0.0269044
0.024319
0.0218684
0.0195359
0.01735
0.0152943
0.013341
0.0115276
0.00984899
0.00825351
0.0067976
0.00549274
0.00425531
0.00315106
0.00220774
0.00133694
0.000574634
-2.69905e-05
-0.00053206
-0.000996594
-0.00131122
-0.00147739
-0.0016201
-0.00174214
-0.00174214
-0.0016201
-0.00147739
-0.00131122
-0.000996594
-0.00053206
-2.69905e-05
0.000574634
0.00133694
0.00220774
0.00315106
0.00425531
0.00549274
0.0067976
0.00825351
0.00984899
0.0115276
0.013341
0.0152943
0.01735
0.0195359
0.0218684
0.024319
0.0269044
0.0296437
0.0325148
0.0355315
0.0387122
0.0420384
0.0455274
0.0491894
0.0530103
0.0570135
0.061199
0.0655579
0.0701225
0.074877
0.0798261
0.0849896
0.0903562
0.095944
0.10175
0.107777
0.114039
0.120527
0.127259
0.134228
0.14144
0.148902
0.156608
0.164572
0.172783
0.181255
0.189976
0.198956
0.208186
0.217671
0.227404
0.237386
0.247611
0.258077
0.268776
0.279704
0.290853
0.302218
0.313786
0.325553
0.337505
0.349636
0.36193
0.374379
0.386965
0.399681
0.412508
0.425435
0.438445
0.451524
0.464657
0.477826
0.491017
0.504212
0.517399
0.530557
0.543674
0.556731
0.569715
0.58261
0.595402
0.608077
0.620621
0.63302
0.645263
0.657339
0.669236
0.680944
0.692452
0.703756
0.714842
0.725706
0.736342
0.746745
0.756908
0.76683
0.776506
0.785935
0.795114
0.804043
0.812721
0.821148
0.829327
0.837256
0.84494
0.85238
0.859579
0.86654
0.873267
0.879763
0.886032
0.89208
0.89791
0.903529
0.90894
0.914147
0.919158
0.923978
0.92861
0.933063
0.937338
0.941445
0.945388
0.949172
0.952803
0.956285
0.959624
0.962825
0.965892
0.968831
0.971648
0.974346
0.976932
0.97941
0.981783
0.984056
0.986235
0.988323
0.990326
0.992247
0.994091
0.995863
0.997565
0.999202
1.00078
1.0023
1.00376
1.00517
1.00652
1.00782
1.00902
1.01012
1.01106
1.01211
1.01125
1.01018
1.00897
1.00764
1.00624
1.00478
1.00327
1.00171
1.0001
0.998424
0.996691
0.994892
0.993024
0.991081
0.989059
0.986953
0.984759
0.98247
0.980083
0.977592
0.974994
0.972283
0.969455
0.966505
0.963427
0.960216
0.956867
0.953375
0.949734
0.94594
0.941988
0.937873
0.933589
0.929128
0.924487
0.919659
0.91464
0.909423
0.904003
0.898376
0.892537
0.88648
0.880201
0.873695
0.866959
0.859988
0.852778
0.845328
0.837633
0.829693
0.821504
0.813066
0.804377
0.795437
0.786246
0.776806
0.767118
0.757185
0.74701
0.736595
0.725947
0.715071
0.703973
0.692658
0.681136
0.669416
0.657508
0.64542
0.633165
0.620754
0.608198
0.595511
0.582706
0.5698
0.556803
0.543733
0.530603
0.517433
0.504234
0.491025
0.47782
0.464638
0.451492
0.4384
0.425376
0.412435
0.399594
0.386863
0.374263
0.3618
0.349492
0.337347
0.32538
0.313599
0.302017
0.290637
0.279474
0.268531
0.257818
0.247339
0.2371
0.227104
0.217357
0.207858
0.198614
0.189621
0.180887
0.172402
0.164179
0.156203
0.148484
0.141011
0.133786
0.126806
0.120064
0.113565
0.107291
0.101254
0.0954371
0.0898394
0.0844628
0.0792902
0.0743323
0.0695685
0.0649957
0.0606281
0.0564343
0.052424
0.0485957
0.0449275
0.0414324
0.0380997
0.0349143
0.0318924
0.0290164
0.0262742
0.023685
0.0212306
0.0188973
0.0167101
0.0146527
0.0127021
0.0108903
0.00921141
0.00762337
0.00617464
0.00487244
0.00364706
0.00255459
0.0016158
0.000757048
1.04343e-05
-0.000584265
-0.00108364
-0.00153088
-0.00183747
-0.00200793
-0.00214717
-0.00225757
-0.00225757
-0.00214717
-0.00200793
-0.00183747
-0.00153088
-0.00108364
-0.000584265
1.04343e-05
0.000757048
0.0016158
0.00255459
0.00364706
0.00487244
0.00617464
0.00762337
0.00921141
0.0108903
0.0127021
0.0146527
0.0167101
0.0188973
0.0212306
0.023685
0.0262742
0.0290164
0.0318924
0.0349143
0.0380997
0.0414324
0.0449275
0.0485957
0.052424
0.0564343
0.0606281
0.0649957
0.0695685
0.0743323
0.0792902
0.0844628
0.0898394
0.0954371
0.101254
0.107291
0.113565
0.120064
0.126806
0.133786
0.141011
0.148484
0.156203
0.164179
0.172402
0.180887
0.189621
0.198614
0.207858
0.217357
0.227104
0.2371
0.247339
0.257818
0.268531
0.279474
0.290637
0.302017
0.313599
0.32538
0.337347
0.349492
0.3618
0.374263
0.386863
0.399594
0.412435
0.425376
0.4384
0.451492
0.464638
0.47782
0.491025
0.504234
0.517433
0.530603
0.543733
0.556803
0.5698
0.582706
0.595511
0.608198
0.620754
0.633165
0.64542
0.657508
0.669416
0.681136
0.692658
0.703973
0.715071
0.725947
0.736595
0.74701
0.757185
0.767118
0.776806
0.786246
0.795437
0.804377
0.813066
0.821504
0.829693
0.837633
0.845328
0.852778
0.859988
0.866959
0.873695
0.880201
0.88648
0.892537
0.898376
0.904003
0.909423
0.91464
0.919659
0.924487
0.929128
0.933589
0.937873
0.941988
0.94594
0.949734
0.953375
0.956867
0.960216
0.963427
0.966505
0.969455
0.972283
0.974994
0.977592
0.980083
0.98247
0.984759
0.986953
0.989059
0.991081
0.993024
0.994892
0.996691
0.998424
1.0001
1.00171
1.00327
1.00478
1.00624
1.00764
1.00897
1.01018
1.01125
1.01211
1.01317
1.01238
1.01136
1.01015
1.00881
1.00738
1.00587
1.00432
1.00271
1.00106
0.999347
0.997582
0.995756
0.993862
0.991897
0.989856
0.987733
0.985523
0.98322
0.980818
0.978314
0.975702
0.972979
0.970139
0.967178
0.964089
0.960867
0.957507
0.954004
0.950352
0.946547
0.942585
0.938459
0.934166
0.929697
0.925047
0.92021
0.915181
0.909954
0.904524
0.898886
0.893037
0.88697
0.88068
0.874163
0.867416
0.860433
0.853212
0.845751
0.838045
0.830093
0.821892
0.813442
0.80474
0.795787
0.786585
0.777131
0.767431
0.757485
0.747296
0.736868
0.726207
0.715317
0.704206
0.692877
0.681342
0.669609
0.657687
0.645586
0.633317
0.620892
0.608323
0.595622
0.582804
0.569884
0.556873
0.54379
0.530646
0.517461
0.504248
0.491024
0.477805
0.464608
0.451447
0.43834
0.425301
0.412345
0.399489
0.386743
0.374128
0.361649
0.349326
0.337166
0.325183
0.313388
0.30179
0.290396
0.279217
0.268259
0.257531
0.247037
0.236784
0.226774
0.217013
0.2075
0.198242
0.189235
0.180488
0.17199
0.163753
0.155766
0.148034
0.14055
0.133313
0.126321
0.119567
0.113057
0.106773
0.100725
0.094898
0.0892908
0.0839043
0.0787235
0.0737567
0.0689845
0.0644048
0.0600286
0.055828
0.0518119
0.0479772
0.0443047
0.0408052
0.0374676
0.0342797
0.0312547
0.0283758
0.0256338
0.0230435
0.0205878
0.0182574
0.0160718
0.0140159
0.0120719
0.0102655
0.00858982
0.00701356
0.0055759
0.00427957
0.00306978
0.00199248
0.00106098
0.000217055
-0.000511991
-0.00109837
-0.00159021
-0.00201942
-0.0023176
-0.00249186
-0.00262715
-0.00272611
-0.00272611
-0.00262715
-0.00249186
-0.0023176
-0.00201942
-0.00159021
-0.00109837
-0.000511991
0.000217055
0.00106098
0.00199248
0.00306978
0.00427957
0.0055759
0.00701356
0.00858982
0.0102655
0.0120719
0.0140159
0.0160718
0.0182574
0.0205878
0.0230435
0.0256338
0.0283758
0.0312547
0.0342797
0.0374676
0.0408052
0.0443047
0.0479772
0.0518119
0.055828
0.0600286
0.0644048
0.0689845
0.0737567
0.0787235
0.0839043
0.0892908
0.094898
0.100725
0.106773
0.113057
0.119567
0.126321
0.133313
0.14055
0.148034
0.155766
0.163753
0.17199
0.180488
0.189235
0.198242
0.2075
0.217013
0.226774
0.236784
0.247037
0.257531
0.268259
0.279217
0.290396
0.30179
0.313388
0.325183
0.337166
0.349326
0.361649
0.374128
0.386743
0.399489
0.412345
0.425301
0.43834
0.451447
0.464608
0.477805
0.491024
0.504248
0.517461
0.530646
0.54379
0.556873
0.569884
0.582804
0.595622
0.608323
0.620892
0.633317
0.645586
0.657687
0.669609
0.681342
0.692877
0.704206
0.715317
0.726207
0.736868
0.747296
0.757485
0.767431
0.777131
0.786585
0.795787
0.80474
0.813442
0.821892
0.830093
0.838045
0.845751
0.853212
0.860433
0.867416
0.874163
0.88068
0.88697
0.893037
0.898886
0.904524
0.909954
0.915181
0.92021
0.925047
0.929697
0.934166
0.938459
0.942585
0.946547
0.950352
0.954004
0.957507
0.960867
0.964089
0.967178
0.970139
0.972979
0.975702
0.978314
0.980818
0.98322
0.985523
0.987733
0.989856
0.991897
0.993862
0.995756
0.997582
0.999347
1.00106
1.00271
1.00432
1.00587
1.00738
1.00881
1.01015
1.01136
1.01238
1.01317
1.01424
1.01352
1.01254
1.01135
1.01
1.00854
1.007
1.0054
1.00376
1.00206
1.00032
0.998524
0.996669
0.994751
0.992763
0.990701
0.98856
0.986334
0.984016
0.9816
0.979082
0.976457
0.973721
0.970869
0.967895
0.964794
0.961561
0.958189
0.954674
0.951011
0.947195
0.94322
0.939085
0.934782
0.930303
0.925642
0.920795
0.915755
0.910518
0.905077
0.899429
0.893569
0.887491
0.881189
0.87466
0.867901
0.860907
0.853673
0.846199
0.838481
0.830516
0.822303
0.813839
0.805125
0.796159
0.786942
0.777475
0.767761
0.757801
0.747598
0.737156
0.726481
0.715577
0.704451
0.693107
0.681558
0.66981
0.657874
0.645758
0.633474
0.621035
0.608451
0.595736
0.582903
0.569968
0.556943
0.543844
0.530685
0.517486
0.504257
0.491017
0.477783
0.46457
0.451394
0.438271
0.425216
0.412244
0.399372
0.38661
0.373978
0.361485
0.349145
0.336969
0.324971
0.31316
0.301546
0.290137
0.278942
0.267969
0.257226
0.246717
0.236449
0.226425
0.216649
0.207122
0.19785
0.18883
0.180068
0.171557
0.163308
0.155307
0.147564
0.140067
0.132818
0.125814
0.11905
0.112527
0.106233
0.100175
0.0943373
0.0887211
0.0833249
0.0781358
0.0731602
0.0683799
0.0637938
0.0594093
0.0552029
0.0511817
0.0473411
0.0436653
0.0401622
0.0368209
0.0336322
0.0306053
0.0277252
0.0249847
0.0223949
0.0199406
0.017615
0.0154331
0.013381
0.0114457
0.00964681
0.00797755
0.00641537
0.00499061
0.00370264
0.0025102
0.00144923
0.000527289
-0.000300383
-0.0010118
-0.00158907
-0.002072
-0.00248379
-0.0027739
-0.00295095
-0.00308211
-0.0031707
-0.0031707
-0.00308211
-0.00295095
-0.0027739
-0.00248379
-0.002072
-0.00158907
-0.0010118
-0.000300383
0.000527289
0.00144923
0.0025102
0.00370264
0.00499061
0.00641537
0.00797755
0.00964681
0.0114457
0.013381
0.0154331
0.017615
0.0199406
0.0223949
0.0249847
0.0277252
0.0306053
0.0336322
0.0368209
0.0401622
0.0436653
0.0473411
0.0511817
0.0552029
0.0594093
0.0637938
0.0683799
0.0731602
0.0781358
0.0833249
0.0887211
0.0943373
0.100175
0.106233
0.112527
0.11905
0.125814
0.132818
0.140067
0.147564
0.155307
0.163308
0.171557
0.180068
0.18883
0.19785
0.207122
0.216649
0.226425
0.236449
0.246717
0.257226
0.267969
0.278942
0.290137
0.301546
0.31316
0.324971
0.336969
0.349145
0.361485
0.373978
0.38661
0.399372
0.412244
0.425216
0.438271
0.451394
0.46457
0.477783
0.491017
0.504257
0.517486
0.530685
0.543844
0.556943
0.569968
0.582903
0.595736
0.608451
0.621035
0.633474
0.645758
0.657874
0.66981
0.681558
0.693107
0.704451
0.715577
0.726481
0.737156
0.747598
0.757801
0.767761
0.777475
0.786942
0.796159
0.805125
0.813839
0.822303
0.830516
0.838481
0.846199
0.853673
0.860907
0.867901
0.87466
0.881189
0.887491
0.893569
0.899429
0.905077
0.910518
0.915755
0.920795
0.925642
0.930303
0.934782
0.939085
0.94322
0.947195
0.951011
0.954674
0.958189
0.961561
0.964794
0.967895
0.970869
0.973721
0.976457
0.979082
0.9816
0.984016
0.986334
0.98856
0.990701
0.992763
0.994751
0.996669
0.998524
1.00032
1.00206
1.00376
1.0054
1.007
1.00854
1.01
1.01135
1.01254
1.01352
1.01424
1.0153
1.01464
1.01371
1.01254
1.0112
1.00972
1.00816
1.00653
1.00484
1.00311
1.00133
0.999505
0.997622
0.995678
0.993667
0.991584
0.989425
0.987182
0.984848
0.982418
0.979886
0.977247
0.974497
0.971631
0.968645
0.965532
0.962286
0.958902
0.955375
0.9517
0.947871
0.943885
0.939738
0.935424
0.930934
0.926263
0.921405
0.916355
0.911107
0.905654
0.899994
0.894123
0.888033
0.881719
0.875178
0.868406
0.861399
0.854152
0.846665
0.838935
0.830957
0.82273
0.814253
0.805525
0.796545
0.787314
0.777833
0.768104
0.758129
0.747912
0.737455
0.726764
0.715845
0.704704
0.693345
0.681781
0.670018
0.658066
0.645935
0.633636
0.621181
0.608582
0.595852
0.583004
0.570053
0.557012
0.543898
0.530723
0.517508
0.504262
0.491007
0.477756
0.464527
0.451334
0.438195
0.425123
0.412135
0.399246
0.386469
0.37382
0.36131
0.348954
0.336762
0.324748
0.312921
0.301291
0.289866
0.278655
0.267667
0.256909
0.246385
0.236101
0.226062
0.216271
0.206731
0.197444
0.18841
0.179634
0.17111
0.162847
0.154835
0.147078
0.139569
0.132307
0.125291
0.118516
0.111982
0.105678
0.0996086
0.0937615
0.088136
0.0827302
0.077533
0.0725484
0.0677603
0.0631679
0.0587758
0.0545641
0.050538
0.0466921
0.0430136
0.0395074
0.0361635
0.0329744
0.0299466
0.0270664
0.0243286
0.0217404
0.0192887
0.0169693
0.0147924
0.0127457
0.0108202
0.0090303
0.00736964
0.00582265
0.00441168
0.00313391
0.0019593
0.000915063
4.27515e-06
-0.00080668
-0.00150107
-0.00206873
-0.00254195
-0.0029376
-0.00322005
-0.00339876
-0.00352581
-0.00360543
-0.00360543
-0.00352581
-0.00339876
-0.00322005
-0.0029376
-0.00254195
-0.00206873
-0.00150107
-0.00080668
4.27515e-06
0.000915063
0.0019593
0.00313391
0.00441168
0.00582265
0.00736964
0.0090303
0.0108202
0.0127457
0.0147924
0.0169693
0.0192887
0.0217404
0.0243286
0.0270664
0.0299466
0.0329744
0.0361635
0.0395074
0.0430136
0.0466921
0.050538
0.0545641
0.0587758
0.0631679
0.0677603
0.0725484
0.077533
0.0827302
0.088136
0.0937615
0.0996086
0.105678
0.111982
0.118516
0.125291
0.132307
0.139569
0.147078
0.154835
0.162847
0.17111
0.179634
0.18841
0.197444
0.206731
0.216271
0.226062
0.236101
0.246385
0.256909
0.267667
0.278655
0.289866
0.301291
0.312921
0.324748
0.336762
0.348954
0.36131
0.37382
0.386469
0.399246
0.412135
0.425123
0.438195
0.451334
0.464527
0.477756
0.491007
0.504262
0.517508
0.530723
0.543898
0.557012
0.570053
0.583004
0.595852
0.608582
0.621181
0.633636
0.645935
0.658066
0.670018
0.681781
0.693345
0.704704
0.715845
0.726764
0.737455
0.747912
0.758129
0.768104
0.777833
0.787314
0.796545
0.805525
0.814253
0.82273
0.830957
0.838935
0.846665
0.854152
0.861399
0.868406
0.875178
0.881719
0.888033
0.894123
0.899994
0.905654
0.911107
0.916355
0.921405
0.926263
0.930934
0.935424
0.939738
0.943885
0.947871
0.9517
0.955375
0.958902
0.962286
0.965532
0.968645
0.971631
0.974497
0.977247
0.979886
0.982418
0.984848
0.987182
0.989425
0.991584
0.993667
0.995678
0.997622
0.999505
1.00133
1.00311
1.00484
1.00653
1.00816
1.00972
1.0112
1.01254
1.01371
1.01464
1.0153
1.01637
1.01576
1.01486
1.01372
1.01239
1.01091
1.00933
1.00767
1.00596
1.00419
1.00238
1.00052
0.998609
0.996638
0.994604
0.9925
0.990321
0.98806
0.985711
0.983265
0.980718
0.978065
0.975301
0.972422
0.969422
0.966296
0.963037
0.95964
0.9561
0.952412
0.948571
0.944572
0.940413
0.936088
0.931587
0.926904
0.922035
0.916974
0.911714
0.906249
0.900578
0.894694
0.888592
0.882266
0.875712
0.868927
0.861907
0.854646
0.847146
0.839402
0.831411
0.82317
0.814679
0.805936
0.796942
0.787697
0.778201
0.768457
0.758468
0.748235
0.737762
0.727056
0.716121
0.704964
0.69359
0.68201
0.670231
0.658264
0.646117
0.633801
0.621331
0.608716
0.59597
0.583105
0.570139
0.557081
0.543951
0.53076
0.517528
0.504265
0.490993
0.477726
0.46448
0.45127
0.438114
0.425026
0.412021
0.399114
0.38632
0.373654
0.361128
0.348755
0.336547
0.324516
0.312673
0.301027
0.289586
0.27836
0.267356
0.256581
0.246042
0.235743
0.225689
0.215884
0.206328
0.197027
0.18798
0.179189
0.170652
0.162376
0.15435
0.146581
0.139059
0.131785
0.124757
0.11797
0.111425
0.10511
0.0990302
0.0931734
0.0875388
0.0821233
0.0769178
0.0719242
0.0671284
0.0625294
0.0581301
0.0539133
0.0498826
0.0460319
0.0423505
0.0388416
0.0354956
0.0323067
0.0292786
0.026399
0.0236641
0.0210783
0.0186306
0.0163178
0.0141468
0.0121069
0.0101917
0.00841154
0.00676119
0.00522981
0.0038329
0.0025668
0.0014099
0.000382244
-0.000516076
-0.0013104
-0.00198868
-0.00254634
-0.0030094
-0.00339041
-0.00366569
-0.00384485
-0.00396794
-0.00404011
-0.00404011
-0.00396794
-0.00384485
-0.00366569
-0.00339041
-0.0030094
-0.00254634
-0.00198868
-0.0013104
-0.000516076
0.000382244
0.0014099
0.0025668
0.0038329
0.00522981
0.00676119
0.00841154
0.0101917
0.0121069
0.0141468
0.0163178
0.0186306
0.0210783
0.0236641
0.026399
0.0292786
0.0323067
0.0354956
0.0388416
0.0423505
0.0460319
0.0498826
0.0539133
0.0581301
0.0625294
0.0671284
0.0719242
0.0769178
0.0821233
0.0875388
0.0931734
0.0990302
0.10511
0.111425
0.11797
0.124757
0.131785
0.139059
0.146581
0.15435
0.162376
0.170652
0.179189
0.18798
0.197027
0.206328
0.215884
0.225689
0.235743
0.246042
0.256581
0.267356
0.27836
0.289586
0.301027
0.312673
0.324516
0.336547
0.348755
0.361128
0.373654
0.38632
0.399114
0.412021
0.425026
0.438114
0.45127
0.46448
0.477726
0.490993
0.504265
0.517528
0.53076
0.543951
0.557081
0.570139
0.583105
0.59597
0.608716
0.621331
0.633801
0.646117
0.658264
0.670231
0.68201
0.69359
0.704964
0.716121
0.727056
0.737762
0.748235
0.758468
0.768457
0.778201
0.787697
0.796942
0.805936
0.814679
0.82317
0.831411
0.839402
0.847146
0.854646
0.861907
0.868927
0.875712
0.882266
0.888592
0.894694
0.900578
0.906249
0.911714
0.916974
0.922035
0.926904
0.931587
0.936088
0.940413
0.944572
0.948571
0.952412
0.9561
0.95964
0.963037
0.966296
0.969422
0.972422
0.975301
0.978065
0.980718
0.983265
0.985711
0.98806
0.990321
0.9925
0.994604
0.996638
0.998609
1.00052
1.00238
1.00419
1.00596
1.00767
1.00933
1.01091
1.01239
1.01372
1.01486
1.01576
1.01637
1.01745
1.01687
1.01601
1.0149
1.01358
1.01211
1.01051
1.00883
1.00709
1.00529
1.00345
1.00157
0.999623
0.997626
0.995567
0.993441
0.991243
0.988964
0.986598
0.984137
0.981575
0.978908
0.976129
0.973235
0.970221
0.967081
0.963809
0.960399
0.956845
0.953144
0.949289
0.945277
0.941106
0.936769
0.932257
0.927563
0.922682
0.917608
0.912336
0.90686
0.901176
0.89528
0.889165
0.882826
0.876259
0.869461
0.862427
0.855153
0.847639
0.839881
0.831876
0.823621
0.815116
0.806359
0.79735
0.788089
0.778578
0.768819
0.758814
0.748565
0.738077
0.727355
0.716404
0.705231
0.693841
0.682244
0.670449
0.658465
0.646302
0.633971
0.621483
0.608852
0.596089
0.583209
0.570225
0.557151
0.544004
0.530796
0.517547
0.504267
0.490978
0.477694
0.46443
0.451204
0.43803
0.424924
0.411902
0.398979
0.386167
0.373484
0.360941
0.348551
0.336326
0.324279
0.312419
0.300757
0.289299
0.278056
0.267037
0.256246
0.245691
0.235377
0.225307
0.215487
0.205917
0.196601
0.187539
0.178735
0.170185
0.161894
0.153856
0.146073
0.138539
0.131252
0.124212
0.117413
0.110856
0.104531
0.0984401
0.092574
0.0869301
0.081505
0.0762909
0.0712883
0.0664847
0.0618791
0.0574728
0.0532511
0.0492157
0.0453605
0.0416764
0.0381648
0.0348172
0.0316286
0.0286007
0.0257223
0.0229905
0.0204075
0.0179644
0.0156586
0.0134942
0.0114618
0.00955706
0.0077874
0.00614833
0.00463245
0.00324975
0.00199624
0.000856662
-0.00015473
-0.00103985
-0.00181797
-0.00248107
-0.00302855
-0.00348137
-0.00384928
-0.00411778
-0.00429638
-0.00441575
-0.00448188
-0.00448188
-0.00441575
-0.00429638
-0.00411778
-0.00384928
-0.00348137
-0.00302855
-0.00248107
-0.00181797
-0.00103985
-0.00015473
0.000856662
0.00199624
0.00324975
0.00463245
0.00614833
0.0077874
0.00955706
0.0114618
0.0134942
0.0156586
0.0179644
0.0204075
0.0229905
0.0257223
0.0286007
0.0316286
0.0348172
0.0381648
0.0416764
0.0453605
0.0492157
0.0532511
0.0574728
0.0618791
0.0664847
0.0712883
0.0762909
0.081505
0.0869301
0.092574
0.0984401
0.104531
0.110856
0.117413
0.124212
0.131252
0.138539
0.146073
0.153856
0.161894
0.170185
0.178735
0.187539
0.196601
0.205917
0.215487
0.225307
0.235377
0.245691
0.256246
0.267037
0.278056
0.289299
0.300757
0.312419
0.324279
0.336326
0.348551
0.360941
0.373484
0.386167
0.398979
0.411902
0.424924
0.43803
0.451204
0.46443
0.477694
0.490978
0.504267
0.517547
0.530796
0.544004
0.557151
0.570225
0.583209
0.596089
0.608852
0.621483
0.633971
0.646302
0.658465
0.670449
0.682244
0.693841
0.705231
0.716404
0.727355
0.738077
0.748565
0.758814
0.768819
0.778578
0.788089
0.79735
0.806359
0.815116
0.823621
0.831876
0.839881
0.847639
0.855153
0.862427
0.869461
0.876259
0.882826
0.889165
0.89528
0.901176
0.90686
0.912336
0.917608
0.922682
0.927563
0.932257
0.936769
0.941106
0.945277
0.949289
0.953144
0.956845
0.960399
0.963809
0.967081
0.970221
0.973235
0.976129
0.978908
0.981575
0.984137
0.986598
0.988964
0.991243
0.993441
0.995567
0.997626
0.999623
1.00157
1.00345
1.00529
1.00709
1.00883
1.01051
1.01211
1.01358
1.0149
1.01601
1.01687
1.01745
1.01853
1.01799
1.01716
1.01607
1.01477
1.0133
1.01169
1.01
1.00824
1.00641
1.00455
1.00263
1.00066
0.998637
0.996556
0.994408
0.992189
0.989892
0.987509
0.985032
0.982454
0.979771
0.976978
0.974068
0.97104
0.967886
0.9646
0.961176
0.957609
0.953894
0.950025
0.946
0.941816
0.937466
0.932942
0.928237
0.923343
0.918258
0.912973
0.907484
0.901788
0.895879
0.889751
0.883399
0.876819
0.870006
0.862958
0.85567
0.848142
0.840371
0.832351
0.824082
0.815562
0.80679
0.797766
0.78849
0.778964
0.769189
0.759168
0.748903
0.738399
0.727661
0.716693
0.705503
0.694096
0.682483
0.670672
0.658671
0.646492
0.634143
0.621639
0.608991
0.596211
0.583313
0.570313
0.557221
0.544057
0.530832
0.517565
0.504268
0.490962
0.477659
0.464378
0.451134
0.437943
0.424819
0.411779
0.398838
0.38601
0.373309
0.360748
0.348342
0.3361
0.324036
0.312159
0.30048
0.289006
0.277747
0.26671
0.255904
0.245333
0.235003
0.224918
0.215083
0.205498
0.196167
0.187091
0.178272
0.169708
0.161403
0.153351
0.145556
0.138009
0.130709
0.123657
0.116846
0.110277
0.103941
0.0978402
0.0919637
0.0863103
0.0808758
0.0756528
0.0706411
0.0658296
0.0612171
0.0568041
0.0525775
0.0485374
0.0446776
0.0409908
0.0374767
0.0341277
0.0309395
0.0279118
0.0250351
0.0223063
0.0197268
0.0172887
0.0149899
0.0128324
0.0108081
0.00891396
0.00715515
0.00552814
0.00402737
0.00265887
0.00141863
0.000295805
-0.000699765
-0.00157123
-0.00233377
-0.00298263
-0.00351986
-0.00396261
-0.00431887
-0.00458101
-0.00475819
-0.00487414
-0.00493548
-0.00493548
-0.00487414
-0.00475819
-0.00458101
-0.00431887
-0.00396261
-0.00351986
-0.00298263
-0.00233377
-0.00157123
-0.000699765
0.000295805
0.00141863
0.00265887
0.00402737
0.00552814
0.00715515
0.00891396
0.0108081
0.0128324
0.0149899
0.0172887
0.0197268
0.0223063
0.0250351
0.0279118
0.0309395
0.0341277
0.0374767
0.0409908
0.0446776
0.0485374
0.0525775
0.0568041
0.0612171
0.0658296
0.0706411
0.0756528
0.0808758
0.0863103
0.0919637
0.0978402
0.103941
0.110277
0.116846
0.123657
0.130709
0.138009
0.145556
0.153351
0.161403
0.169708
0.178272
0.187091
0.196167
0.205498
0.215083
0.224918
0.235003
0.245333
0.255904
0.26671
0.277747
0.289006
0.30048
0.312159
0.324036
0.3361
0.348342
0.360748
0.373309
0.38601
0.398838
0.411779
0.424819
0.437943
0.451134
0.464378
0.477659
0.490962
0.504268
0.517565
0.530832
0.544057
0.557221
0.570313
0.583313
0.596211
0.608991
0.621639
0.634143
0.646492
0.658671
0.670672
0.682483
0.694096
0.705503
0.716693
0.727661
0.738399
0.748903
0.759168
0.769189
0.778964
0.78849
0.797766
0.80679
0.815562
0.824082
0.832351
0.840371
0.848142
0.85567
0.862958
0.870006
0.876819
0.883399
0.889751
0.895879
0.901788
0.907484
0.912973
0.918258
0.923343
0.928237
0.932942
0.937466
0.941816
0.946
0.950025
0.953894
0.957609
0.961176
0.9646
0.967886
0.97104
0.974068
0.976978
0.979771
0.982454
0.985032
0.987509
0.989892
0.992189
0.994408
0.996556
0.998637
1.00066
1.00263
1.00455
1.00641
1.00824
1.01
1.01169
1.0133
1.01477
1.01607
1.01716
1.01799
1.01853
1.01963
1.01912
1.01831
1.01724
1.01595
1.01448
1.01288
1.01117
1.00939
1.00755
1.00565
1.00371
1.00172
0.999672
0.997569
0.995399
0.993159
0.990843
0.988442
0.985948
0.983354
0.980655
0.977847
0.974922
0.971878
0.968711